 Gaussian 16, Revision B.01,
 Gaussian 16:  ES64L-G16RevB.01 20-Dec-2017

 ---------------------------------------------------------------------
 #p b3lyp 6-31++g(d,p) scf=verytight NoSymm freq=noraman int=ultrafine
 ---------------------------------------------------------------------

 ------------------------
 RxCoord=0.00000 DE=55.32
 ------------------------
 Symbolic Z-matrix:
 Charge = -1 Multiplicity = 1

                          Input orientation:
 ---------------------------------------------------------------------
 Center     Atomic      Atomic             Coordinates (Angstroms)
 Number     Number       Type             X           Y           Z
 ---------------------------------------------------------------------
      1          6           0       -0.019292    0.000005   -0.000145
      2         17           0       -2.233500   -0.000002    0.000068
      3          1           0        0.070945    0.002510   -1.072336
      4          1           0        0.071059    0.927333    0.538069
      5          1           0        0.071067   -0.929825    0.533732
      6          6           0        2.279496    0.000009   -0.000230
      7          7           0        3.456458   -0.000008    0.000232
 ---------------------------------------------------------------------

 SCF Done:  E(RB3LYP) =  -592.986938547     A.U. after   12 cycles

 Alpha  occ. eigenvalues -- -101.34044 -14.13757 -10.11326 -10.00977  -9.25519
 Alpha  occ. eigenvalues --   -7.01602  -7.01118  -7.01118  -0.69207  -0.62140
 Alpha  occ. eigenvalues --   -0.54304  -0.30812  -0.30811  -0.23816  -0.18232
 Alpha  occ. eigenvalues --   -0.13908  -0.13908  -0.12639  -0.12639  -0.10140
 Alpha virt. eigenvalues --    0.11131   0.12585   0.14870   0.14870   0.15872
 Alpha virt. eigenvalues --    0.19158   0.20035   0.20035   0.22458   0.22459
 Alpha virt. eigenvalues --    0.24388   0.24388   0.25119   0.25585   0.25600

 Mulliken charges:
               1
     1  C   -0.339517
     2  Cl  -0.546925
     3  H    0.213816
     4  H    0.213805
     5  H    0.213805
     6  C   -0.188168
     7  N   -0.566816
 Sum of Mulliken charges =  -1.00000

 Dipole moment (field-independent basis, Debye):
    X=             -3.8716    Y=              0.0000    Z=             -0.0005  Tot=              3.8716
 Quadrupole moment (field-independent basis, Debye-Ang):
   XX=            -87.4710   YY=            -35.2378   ZZ=            -35.2382
   XY=              0.0000   XZ=             -0.0010   YZ=             -0.0000

  Exact polarizability: 125.143  -0.000  38.769   0.002  -0.000  38.770
 Approx polarizability: 162.494  -0.000  48.575   0.003   0.000  48.574

 ******    1 imaginary frequencies (negative Signs) ******

                      1                      2                      3
                      A                      A                      A
 Frequencies --   -421.2357                85.3250                85.3541
 Red. masses --     12.3532                 7.6320                 7.6328
 Frc consts  --      1.2915                 0.0327                 0.0328
 IR Inten    --   1203.2018                 6.1576                 6.1561

                      4                      5                      6
                      A                      A                      A
 Frequencies --    230.0510               277.2142               277.2245
 Red. masses --     18.4080                 5.3942                 5.3939
 Frc consts  --      0.5740                 0.2442                 0.2442
 IR Inten    --      5.0739                11.0209                11.0216

                      7                      8                      9
                      A                      A                      A
 Frequencies --    981.9322               981.9875              1061.7003
 Red. masses --      1.0228                 1.0228                 1.0481
 Frc consts  --      0.5810                 0.5811                 0.6961
 IR Inten    --      0.0320                 0.0320                92.7410

                     10                     11                     12
                      A                      A                      A
 Frequencies --   1408.0920              1408.1320              2175.7630
 Red. masses --      1.1019                 1.1019                12.7352
 Frc consts  --      1.2873                 1.2873                35.5206
 IR Inten    --      4.1871                 4.1865                 0.8883

                     13                     14                     15
                      A                      A                      A
 Frequencies --   3190.8827              3386.5626              3386.6531
 Red. masses --      1.0089                 1.1233                 1.1233
 Frc consts  --      6.0526                 7.5902                 7.5905
 IR Inten    --      0.2535                 1.9688                 1.9663

 - Thermochemistry -
 -------------------
 Temperature   298.150 Kelvin.  Pressure   1.00000 Atm.
 Atom     1 has atomic number  6 and mass  12.00000

 Molecular mass:    75.99540 amu.
 Principal axes and moments of inertia in atomic units:
                           1         2         3
     Eigenvalues --    12.412341449.053111449.05395
           X            1.00000  -0.00000   0.00000
           Y            0.00000   1.00000  -0.00067
           Z           -0.00000   0.00067   1.00000
 This molecule is an asymmetric top.
 Rotational symmetry number  1.
 Rotational temperatures (Kelvin)      6.97805     0.05977     0.05977
 Rotational constants (GHZ):         145.39896     1.24546     1.24546
    1 imaginary frequencies ignored.
 Zero-point vibrational energy     113267.7 (Joules/Mol)
                                   27.07162 (Kcal/Mol)
 Warning -- explicit consideration of   5 degrees of freedom as
           vibrations may cause significant error
 Vibrational temperatures:    122.76   122.81   330.99   398.85   398.86
          (Kelvin)           1412.78  1412.86  1527.55  2025.93  2025.99
                             3130.44  4590.97  4872.51  4872.64

 Zero-point correction=                           0.043141 (Hartree/Particle)
 Thermal correction to Energy=                    0.049037
 Thermal correction to Enthalpy=                  0.049981
 Thermal correction to Gibbs Free Energy=         0.013639
 Sum of electronic and zero-point Energies=           -592.943797
 Sum of electronic and thermal Energies=              -592.937902
 Sum of electronic and thermal Enthalpies=            -592.936958
 Sum of electronic and thermal Free Energies=         -592.973299

                     E (Thermal)             CV                S
                      KCal/Mol        Cal/Mol-Kelvin    Cal/Mol-Kelvin
 Total                   30.771             16.428             76.487
 Electronic               0.000              0.000              0.000
 Translational            0.889              2.981             38.900
 Rotational               0.889              2.981             24.770
 Vibrational             28.994             10.466             12.818
 Vibration     1          0.601              1.959              3.765
 Vibration     2          0.601              1.959              3.764
 Vibration     3          0.652              1.795              1.879
 Vibration     4          0.678              1.716              1.551
 Vibration     5          0.678              1.716              1.551

 Normal termination of Gaussian 16 at Sun Oct 13 09:50:53 2024.
