 Gaussian 16, Revision B.01,
 Gaussian 16:  ES64L-G16RevB.01 20-Dec-2017

 ---------------------------------------------------------------------
 #p b3lyp 6-31++g(d,p) scf=verytight NoSymm freq=noraman int=ultrafine
 ---------------------------------------------------------------------

 ------------------------
 RxCoord=0.10000 DE=55.29
 ------------------------
 Symbolic Z-matrix:
 Charge = -1 Multiplicity = 1

                          Input orientation:
 ---------------------------------------------------------------------
 Center     Atomic      Atomic             Coordinates (Angstroms)
 Number     Number       Type             X           Y           Z
 ---------------------------------------------------------------------
      1          6           0       -0.002022    0.000005   -0.000149
      2         17           0       -2.200163   -0.000002    0.000059
      3          1           0        0.101070    0.002508   -1.071432
      4          1           0        0.101202    0.926547    0.537606
      5          1           0        0.101210   -0.929037    0.533273
      6          6           0        2.314138    0.000009   -0.000238
      7          7           0        3.491085   -0.000008    0.000224
 ---------------------------------------------------------------------

 SCF Done:  E(RB3LYP) =  -592.986898524     A.U. after   12 cycles

 Alpha  occ. eigenvalues -- -101.34360 -14.13514 -10.11278 -10.00675  -9.25837
 Alpha  occ. eigenvalues --   -7.01932  -7.01430  -7.01430  -0.68968  -0.62451
 Alpha  occ. eigenvalues --   -0.54295  -0.30766  -0.30765  -0.23644  -0.18359
 Alpha  occ. eigenvalues --   -0.13711  -0.13711  -0.12858  -0.12858  -0.10046
 Alpha virt. eigenvalues --    0.11146   0.12555   0.14872   0.14872   0.15899
 Alpha virt. eigenvalues --    0.19136   0.20113   0.20114   0.22430   0.22430
 Alpha virt. eigenvalues --    0.24472   0.24472   0.25123   0.25636   0.25636

 Mulliken charges:
               1
     1  C   -0.341859
     2  Cl  -0.533600
     3  H    0.213447
     4  H    0.213436
     5  H    0.213436
     6  C   -0.198855
     7  N   -0.566004
 Sum of Mulliken charges =  -1.00000

 Dipole moment (field-independent basis, Debye):
    X=             -4.3020    Y=              0.0000    Z=             -0.0005  Tot=              4.3020
 Quadrupole moment (field-independent basis, Debye-Ang):
   XX=            -87.7543   YY=            -35.2431   ZZ=            -35.2436
   XY=              0.0000   XZ=             -0.0009   YZ=             -0.0000

  Exact polarizability: 124.578  -0.000  38.772   0.002  -0.000  38.772
 Approx polarizability: 161.594  -0.000  48.593   0.004  -0.000  48.592

 ******    1 imaginary frequencies (negative Signs) ******

                      1                      2                      3
                      A                      A                      A
 Frequencies --   -408.8019                78.4944                78.5244
 Red. masses --     12.2860                 7.7729                 7.7738
 Frc consts  --      1.2097                 0.0282                 0.0282
 IR Inten    --   1180.5078                 5.4720                 5.4706

                      4                      5                      6
                      A                      A                      A
 Frequencies --    230.4326               272.4141               272.4264
 Red. masses --     18.3597                 5.3164                 5.3162
 Frc consts  --      0.5744                 0.2324                 0.2325
 IR Inten    --      4.9099                11.4542                11.4550

                      7                      8                      9
                      A                      A                      A
 Frequencies --    981.4091               981.4729              1068.0879
 Red. masses --      1.0244                 1.0244                 1.0483
 Frc consts  --      0.5813                 0.5814                 0.7046
 IR Inten    --      0.0292                 0.0293                92.5830

                     10                     11                     12
                      A                      A                      A
 Frequencies --   1409.4880              1409.5292              2176.0676
 Red. masses --      1.1009                 1.1009                12.7401
 Frc consts  --      1.2886                 1.2886                35.5442
 IR Inten    --      4.2313                 4.2305                 1.2541

                     13                     14                     15
                      A                      A                      A
 Frequencies --   3189.0105              3383.2660              3383.3593
 Red. masses --      1.0093                 1.1230                 1.1230
 Frc consts  --      6.0475                 7.5736                 7.5740
 IR Inten    --      0.4094                 1.8221                 1.8198

 - Thermochemistry -
 -------------------
 Temperature   298.150 Kelvin.  Pressure   1.00000 Atm.
 Atom     1 has atomic number  6 and mass  12.00000

 Molecular mass:    75.99540 amu.
 Principal axes and moments of inertia in atomic units:
                           1         2         3
     Eigenvalues --    12.391291449.737621449.73847
           X            1.00000  -0.00000   0.00000
           Y            0.00000   1.00000   0.00142
           Z           -0.00000  -0.00142   1.00000
 This molecule is an asymmetric top.
 Rotational symmetry number  1.
 Rotational temperatures (Kelvin)      6.98990     0.05974     0.05974
 Rotational constants (GHZ):         145.64592     1.24487     1.24487
    1 imaginary frequencies ignored.
 Zero-point vibrational energy     113130.7 (Joules/Mol)
                                   27.03890 (Kcal/Mol)
 Warning -- explicit consideration of   5 degrees of freedom as
           vibrations may cause significant error
 Vibrational temperatures:    112.94   112.98   331.54   391.94   391.96
          (Kelvin)           1412.03  1412.12  1536.74  2027.94  2028.00
                             3130.88  4588.27  4867.77  4867.90

 Zero-point correction=                           0.043089 (Hartree/Particle)
 Thermal correction to Energy=                    0.049023
 Thermal correction to Enthalpy=                  0.049967
 Thermal correction to Gibbs Free Energy=         0.013444
 Sum of electronic and zero-point Energies=           -592.943809
 Sum of electronic and thermal Energies=              -592.937875
 Sum of electronic and thermal Enthalpies=            -592.936931
 Sum of electronic and thermal Free Energies=         -592.973454

                     E (Thermal)             CV                S
                      KCal/Mol        Cal/Mol-Kelvin    Cal/Mol-Kelvin
 Total                   30.762             16.447             76.869
 Electronic               0.000              0.000              0.000
 Translational            0.889              2.981             38.900
 Rotational               0.889              2.981             24.769
 Vibrational             28.985             10.485             13.201
 Vibration     1          0.600              1.964              3.928
 Vibration     2          0.600              1.964              3.927
 Vibration     3          0.652              1.794              1.876
 Vibration     4          0.675              1.724              1.581
 Vibration     5          0.675              1.724              1.581

 Normal termination of Gaussian 16 at Sun Oct 13 09:50:50 2024.
