 Gaussian 16, Revision B.01,
 Gaussian 16:  ES64L-G16RevB.01 20-Dec-2017

 ---------------------------------------------------------------------
 #p b3lyp 6-31++g(d,p) scf=verytight NoSymm freq=noraman int=ultrafine
 ---------------------------------------------------------------------

 ------------------------
 RxCoord=0.19996 DE=55.21
 ------------------------
 Symbolic Z-matrix:
 Charge = -1 Multiplicity = 1

                          Input orientation:
 ---------------------------------------------------------------------
 Center     Atomic      Atomic             Coordinates (Angstroms)
 Number     Number       Type             X           Y           Z
 ---------------------------------------------------------------------
      1          6           0       -0.015855    0.000006   -0.000144
      2         17           0       -2.197911   -0.000002    0.000058
      3          1           0        0.099872    0.002504   -1.070406
      4          1           0        0.100046    0.925664    0.537096
      5          1           0        0.100043   -0.928151    0.532767
      6          6           0        2.317631    0.000008   -0.000238
      7          7           0        3.494576   -0.000008    0.000222
 ---------------------------------------------------------------------

 SCF Done:  E(RB3LYP) =  -592.986921922     A.U. after   12 cycles

 Alpha  occ. eigenvalues -- -101.34674 -14.13276 -10.11227 -10.00380  -9.26153
 Alpha  occ. eigenvalues --   -7.02260  -7.01740  -7.01740  -0.68734  -0.62770
 Alpha  occ. eigenvalues --   -0.54280  -0.30717  -0.30716  -0.23495  -0.18497
 Alpha  occ. eigenvalues --   -0.13569  -0.13569  -0.13025  -0.13025  -0.09937
 Alpha virt. eigenvalues --    0.11160   0.12533   0.14873   0.14874   0.15926
 Alpha virt. eigenvalues --    0.19119   0.20186   0.20186   0.22400   0.22400
 Alpha virt. eigenvalues --    0.24551   0.24551   0.25117   0.25680   0.25680

 Mulliken charges:
               1
     1  C   -0.343938
     2  Cl  -0.520045
     3  H    0.213086
     4  H    0.213076
     5  H    0.213076
     6  C   -0.210237
     7  N   -0.565017
 Sum of Mulliken charges =  -1.00000

 Dipole moment (field-independent basis, Debye):
    X=             -4.5800    Y=              0.0000    Z=             -0.0004  Tot=              4.5800
 Quadrupole moment (field-independent basis, Debye-Ang):
   XX=            -87.7884   YY=            -35.2493   ZZ=            -35.2498
   XY=              0.0000   XZ=             -0.0009   YZ=              0.0000

  Exact polarizability: 123.913  -0.000  38.779   0.002  -0.000  38.780
 Approx polarizability: 160.510  -0.000  48.615   0.004   0.000  48.614

 ******    1 imaginary frequencies (negative Signs) ******

                      1                      2                      3
                      A                      A                      A
 Frequencies --   -395.2528                71.0745                71.1046
 Red. masses --     12.1981                 7.9180                 7.9189
 Frc consts  --      1.1228                 0.0236                 0.0236
 IR Inten    --   1155.1031                 4.8246                 4.8232

                      4                      5                      6
                      A                      A                      A
 Frequencies --    230.9295               267.6803               267.6943
 Red. masses --     18.3126                 5.2325                 5.2323
 Frc consts  --      0.5754                 0.2209                 0.2209
 IR Inten    --      4.9142                11.8458                11.8466

                      7                      8                      9
                      A                      A                      A
 Frequencies --    980.9754               981.0524              1075.2088
 Red. masses --      1.0264                 1.0264                 1.0487
 Frc consts  --      0.5819                 0.5820                 0.7143
 IR Inten    --      0.0266                 0.0267                92.1330

                     10                     11                     12
                      A                      A                      A
 Frequencies --   1411.0130              1411.0480              2176.2649
 Red. masses --      1.0997                 1.0997                12.7448
 Frc consts  --      1.2899                 1.2900                35.5638
 IR Inten    --      4.2868                 4.2857                 1.6750

                     13                     14                     15
                      A                      A                      A
 Frequencies --   3187.0173              3379.6596              3379.7732
 Red. masses --      1.0097                 1.1227                 1.1227
 Frc consts  --      6.0422                 7.5555                 7.5559
 IR Inten    --      0.5970                 1.6708                 1.6687

 - Thermochemistry -
 -------------------
 Temperature   298.150 Kelvin.  Pressure   1.00000 Atm.
 Atom     1 has atomic number  6 and mass  12.00000

 Molecular mass:    75.99540 amu.
 Principal axes and moments of inertia in atomic units:
                           1         2         3
     Eigenvalues --    12.367661450.409811450.41067
           X            1.00000   0.00000   0.00000
           Y           -0.00000   0.99997  -0.00768
           Z           -0.00000   0.00768   0.99997
 This molecule is an asymmetric top.
 Rotational symmetry number  1.
 Rotational temperatures (Kelvin)      7.00326     0.05972     0.05972
 Rotational constants (GHZ):         145.92421     1.24430     1.24430
    1 imaginary frequencies ignored.
 Zero-point vibrational energy     112990.3 (Joules/Mol)
                                   27.00532 (Kcal/Mol)
 Warning -- explicit consideration of   5 degrees of freedom as
           vibrations may cause significant error
 Vibrational temperatures:    102.26   102.30   332.26   385.13   385.15
          (Kelvin)           1411.40  1411.52  1546.99  2030.13  2030.18
                             3131.16  4585.41  4862.58  4862.74

 Zero-point correction=                           0.043036 (Hartree/Particle)
 Thermal correction to Energy=                    0.049011
 Thermal correction to Enthalpy=                  0.049955
 Thermal correction to Gibbs Free Energy=         0.013221
 Sum of electronic and zero-point Energies=           -592.943886
 Sum of electronic and thermal Energies=              -592.937911
 Sum of electronic and thermal Enthalpies=            -592.936967
 Sum of electronic and thermal Free Energies=         -592.973701

                     E (Thermal)             CV                S
                      KCal/Mol        Cal/Mol-Kelvin    Cal/Mol-Kelvin
 Total                   30.755             16.465             77.313
 Electronic               0.000              0.000              0.000
 Translational            0.889              2.981             38.900
 Rotational               0.889              2.981             24.768
 Vibrational             28.977             10.503             13.646
 Vibration     1          0.598              1.968              4.123
 Vibration     2          0.598              1.968              4.123
 Vibration     3          0.653              1.794              1.872
 Vibration     4          0.673              1.732              1.611
 Vibration     5          0.673              1.732              1.611

 Normal termination of Gaussian 16 at Sun Oct 13 09:50:50 2024.
