 Gaussian 16, Revision B.01,
 Gaussian 16:  ES64L-G16RevB.01 20-Dec-2017

 ---------------------------------------------------------------------
 #p b3lyp 6-31++g(d,p) scf=verytight NoSymm freq=noraman int=ultrafine
 ---------------------------------------------------------------------

 ------------------------
 RxCoord=0.29992 DE=55.06
 ------------------------
 Symbolic Z-matrix:
 Charge = -1 Multiplicity = 1

                          Input orientation:
 ---------------------------------------------------------------------
 Center     Atomic      Atomic             Coordinates (Angstroms)
 Number     Number       Type             X           Y           Z
 ---------------------------------------------------------------------
      1          6           0       -0.029675    0.000006   -0.000141
      2         17           0       -2.195623   -0.000002    0.000056
      3          1           0        0.098419    0.002500   -1.069223
      4          1           0        0.098613    0.924644    0.536497
      5          1           0        0.098609   -0.927127    0.532175
      6          6           0        2.321092    0.000007   -0.000236
      7          7           0        3.498052   -0.000008    0.000222
 ---------------------------------------------------------------------

 SCF Done:  E(RB3LYP) =  -592.987004769     A.U. after   12 cycles

 Alpha  occ. eigenvalues -- -101.34986 -14.13045 -10.11169 -10.00093  -9.26468
 Alpha  occ. eigenvalues --   -7.02585  -7.02048  -7.02048  -0.68504  -0.63097
 Alpha  occ. eigenvalues --   -0.54263  -0.30668  -0.30667  -0.23371  -0.18639
 Alpha  occ. eigenvalues --   -0.13580  -0.13580  -0.13040  -0.13040  -0.09814
 Alpha virt. eigenvalues --    0.11175   0.12519   0.14874   0.14875   0.15953
 Alpha virt. eigenvalues --    0.19108   0.20253   0.20253   0.22370   0.22370
 Alpha virt. eigenvalues --    0.24623   0.24623   0.25103   0.25732   0.25733

 Mulliken charges:
               1
     1  C   -0.345838
     2  Cl  -0.506279
     3  H    0.212744
     4  H    0.212736
     5  H    0.212735
     6  C   -0.222244
     7  N   -0.563854
 Sum of Mulliken charges =  -1.00000

 Dipole moment (field-independent basis, Debye):
    X=             -4.8548    Y=              0.0000    Z=             -0.0004  Tot=              4.8548
 Quadrupole moment (field-independent basis, Debye-Ang):
   XX=            -87.8190   YY=            -35.2562   ZZ=            -35.2567
   XY=              0.0001   XZ=             -0.0009   YZ=              0.0000

  Exact polarizability: 123.145  -0.000  38.791   0.002  -0.000  38.791
 Approx polarizability: 159.243  -0.000  48.641   0.004   0.000  48.640

 ******    1 imaginary frequencies (negative Signs) ******

                      1                      2                      3
                      A                      A                      A
 Frequencies --   -380.5717                62.9666                62.9974
 Red. masses --     12.0894                 8.0648                 8.0657
 Frc consts  --      1.0316                 0.0188                 0.0189
 IR Inten    --   1127.3311                 4.2213                 4.2199

                      4                      5                      6
                      A                      A                      A
 Frequencies --    231.5741               263.0074               263.0228
 Red. masses --     18.2692                 5.1445                 5.1443
 Frc consts  --      0.5772                 0.2097                 0.2097
 IR Inten    --      5.1359                12.1917                12.1923

                      7                      8                      9
                      A                      A                      A
 Frequencies --    980.4464               980.5293              1082.8137
 Red. masses --      1.0289                 1.0289                 1.0492
 Frc consts  --      0.5827                 0.5828                 0.7248
 IR Inten    --      0.0242                 0.0242                91.3079

                     10                     11                     12
                      A                      A                      A
 Frequencies --   1412.5309              1412.5713              2176.3259
 Red. masses --      1.0983                 1.0983                12.7494
 Frc consts  --      1.2912                 1.2912                35.5785
 IR Inten    --      4.3549                 4.3536                 2.1463

                     13                     14                     15
                      A                      A                      A
 Frequencies --   3185.4728              3376.3903              3376.4919
 Red. masses --      1.0101                 1.1224                 1.1224
 Frc consts  --      6.0389                 7.5387                 7.5391
 IR Inten    --      0.8134                 1.5198                 1.5174

 - Thermochemistry -
 -------------------
 Temperature   298.150 Kelvin.  Pressure   1.00000 Atm.
 Atom     1 has atomic number  6 and mass  12.00000

 Molecular mass:    75.99540 amu.
 Principal axes and moments of inertia in atomic units:
                           1         2         3
     Eigenvalues --    12.340341451.068131451.06906
           X            1.00000   0.00000  -0.00000
           Y           -0.00000   0.99998  -0.00698
           Z            0.00000   0.00698   0.99998
 This molecule is an asymmetric top.
 Rotational symmetry number  1.
 Rotational temperatures (Kelvin)      7.01876     0.05969     0.05969
 Rotational constants (GHZ):         146.24731     1.24373     1.24373
    1 imaginary frequencies ignored.
 Zero-point vibrational energy     112850.6 (Joules/Mol)
                                   26.97193 (Kcal/Mol)
 Warning -- explicit consideration of   5 degrees of freedom as
           vibrations may cause significant error
 Vibrational temperatures:     90.59    90.64   333.18   378.41   378.43
          (Kelvin)           1410.64  1410.76  1557.93  2032.32  2032.38
                             3131.25  4583.18  4857.87  4858.02

 Zero-point correction=                           0.042983 (Hartree/Particle)
 Thermal correction to Energy=                    0.049001
 Thermal correction to Enthalpy=                  0.049946
 Thermal correction to Gibbs Free Energy=         0.012960
 Sum of electronic and zero-point Energies=           -592.944022
 Sum of electronic and thermal Energies=              -592.938003
 Sum of electronic and thermal Enthalpies=            -592.937059
 Sum of electronic and thermal Free Energies=         -592.974045

                     E (Thermal)             CV                S
                      KCal/Mol        Cal/Mol-Kelvin    Cal/Mol-Kelvin
 Total                   30.749             16.482             77.843
 Electronic               0.000              0.000              0.000
 Translational            0.889              2.981             38.900
 Rotational               0.889              2.981             24.767
 Vibrational             28.971             10.520             14.177
 Vibration     1          0.597              1.972              4.362
 Vibration     2          0.597              1.972              4.361
 Vibration     3          0.653              1.793              1.867
 Vibration     4          0.670              1.741              1.642
 Vibration     5          0.670              1.741              1.642

 Normal termination of Gaussian 16 at Sun Oct 13 09:51:01 2024.
