 Gaussian 16, Revision B.01,
 Gaussian 16:  ES64L-G16RevB.01 20-Dec-2017

 ---------------------------------------------------------------------
 #p b3lyp 6-31++g(d,p) scf=verytight NoSymm freq=noraman int=ultrafine
 ---------------------------------------------------------------------

 ------------------------
 RxCoord=0.39989 DE=54.88
 ------------------------
 Symbolic Z-matrix:
 Charge = -1 Multiplicity = 1

                          Input orientation:
 ---------------------------------------------------------------------
 Center     Atomic      Atomic             Coordinates (Angstroms)
 Number     Number       Type             X           Y           Z
 ---------------------------------------------------------------------
      1          6           0       -0.043486    0.000006   -0.000140
      2         17           0       -2.193309   -0.000002    0.000055
      3          1           0        0.096776    0.002496   -1.067945
      4          1           0        0.096997    0.923542    0.535849
      5          1           0        0.096992   -0.926021    0.531533
      6          6           0        2.324529    0.000006   -0.000232
      7          7           0        3.501514   -0.000008    0.000223
 ---------------------------------------------------------------------

 SCF Done:  E(RB3LYP) =  -592.987142478     A.U. after   12 cycles

 Alpha  occ. eigenvalues -- -101.35296 -14.12819 -10.11108  -9.99814  -9.26781
 Alpha  occ. eigenvalues --   -7.02909  -7.02355  -7.02355  -0.68280  -0.63431
 Alpha  occ. eigenvalues --   -0.54242  -0.30617  -0.30615  -0.23275  -0.18778
 Alpha  occ. eigenvalues --   -0.13741  -0.13741  -0.12907  -0.12907  -0.09681
 Alpha virt. eigenvalues --    0.11189   0.12512   0.14875   0.14875   0.15981
 Alpha virt. eigenvalues --    0.19102   0.20313   0.20314   0.22341   0.22341
 Alpha virt. eigenvalues --    0.24688   0.24688   0.25083   0.25793   0.25793

 Mulliken charges:
               1
     1  C   -0.347599
     2  Cl  -0.492276
     3  H    0.212418
     4  H    0.212411
     5  H    0.212411
     6  C   -0.234834
     7  N   -0.562531
 Sum of Mulliken charges =  -1.00000

 Dipole moment (field-independent basis, Debye):
    X=             -5.1262    Y=              0.0000    Z=             -0.0004  Tot=              5.1262
 Quadrupole moment (field-independent basis, Debye-Ang):
   XX=            -87.8464   YY=            -35.2638   ZZ=            -35.2643
   XY=              0.0001   XZ=             -0.0008   YZ=              0.0000

  Exact polarizability: 122.278  -0.000  38.806   0.002   0.000  38.806
 Approx polarizability: 157.805  -0.000  48.670   0.004   0.000  48.669

 ******    1 imaginary frequencies (negative Signs) ******

                      1                      2                      3
                      A                      A                      A
 Frequencies --   -364.4410                53.7603                53.7912
 Red. masses --     11.9572                 8.2154                 8.2162
 Frc consts  --      0.9357                 0.0140                 0.0140
 IR Inten    --   1097.1279                 3.6602                 3.6590

                      4                      5                      6
                      A                      A                      A
 Frequencies --    232.3981               258.3611               258.3771
 Red. masses --     18.2343                 5.0527                 5.0525
 Frc consts  --      0.5802                 0.1987                 0.1987
 IR Inten    --      5.6545                12.4926                12.4931

                      7                      8                      9
                      A                      A                      A
 Frequencies --    980.0826               980.1779              1091.0537
 Red. masses --      1.0318                 1.0318                 1.0498
 Frc consts  --      0.5840                 0.5841                 0.7363
 IR Inten    --      0.0220                 0.0221                90.1613

                     10                     11                     12
                      A                      A                      A
 Frequencies --   1414.1637              1414.2029              2176.3017
 Red. masses --      1.0969                 1.0969                12.7538
 Frc consts  --      1.2925                 1.2925                35.5900
 IR Inten    --      4.4336                 4.4319                 2.6641

                     13                     14                     15
                      A                      A                      A
 Frequencies --   3183.7665              3372.7769              3372.8895
 Red. masses --      1.0105                 1.1220                 1.1220
 Frc consts  --      6.0351                 7.5203                 7.5207
 IR Inten    --      1.0551                 1.3677                 1.3652

 - Thermochemistry -
 -------------------
 Temperature   298.150 Kelvin.  Pressure   1.00000 Atm.
 Atom     1 has atomic number  6 and mass  12.00000

 Molecular mass:    75.99540 amu.
 Principal axes and moments of inertia in atomic units:
                           1         2         3
     Eigenvalues --    12.310841451.720971451.72198
           X            1.00000   0.00000  -0.00000
           Y           -0.00000   0.99995  -0.00957
           Z            0.00000   0.00957   0.99995
 This molecule is an asymmetric top.
 Rotational symmetry number  1.
 Rotational temperatures (Kelvin)      7.03558     0.05966     0.05966
 Rotational constants (GHZ):         146.59770     1.24317     1.24317
    1 imaginary frequencies ignored.
 Zero-point vibrational energy     112700.8 (Joules/Mol)
                                   26.93614 (Kcal/Mol)
 Warning -- explicit consideration of   5 degrees of freedom as
           vibrations may cause significant error
 Vibrational temperatures:     77.35    77.39   334.37   371.72   371.75
          (Kelvin)           1410.12  1410.26  1569.78  2034.67  2034.72
                             3131.21  4580.73  4852.67  4852.84

 Zero-point correction=                           0.042925 (Hartree/Particle)
 Thermal correction to Energy=                    0.048993
 Thermal correction to Enthalpy=                  0.049937
 Thermal correction to Gibbs Free Energy=         0.012630
 Sum of electronic and zero-point Energies=           -592.944217
 Sum of electronic and thermal Energies=              -592.938149
 Sum of electronic and thermal Enthalpies=            -592.937205
 Sum of electronic and thermal Free Energies=         -592.974512

                     E (Thermal)             CV                S
                      KCal/Mol        Cal/Mol-Kelvin    Cal/Mol-Kelvin
 Total                   30.744             16.497             78.520
 Electronic               0.000              0.000              0.000
 Translational            0.889              2.981             38.900
 Rotational               0.889              2.981             24.765
 Vibrational             28.966             10.535             14.855
 Vibration     1          0.596              1.976              4.674
 Vibration     2          0.596              1.976              4.673
 Vibration     3          0.653              1.791              1.860
 Vibration     4          0.667              1.749              1.673
 Vibration     5          0.667              1.749              1.673

 Normal termination of Gaussian 16 at Sun Oct 13 09:51:02 2024.
