 Gaussian 16, Revision B.01,
 Gaussian 16:  ES64L-G16RevB.01 20-Dec-2017

 ---------------------------------------------------------------------
 #p b3lyp 6-31++g(d,p) scf=verytight NoSymm freq=noraman int=ultrafine
 ---------------------------------------------------------------------

 ------------------------
 RxCoord=0.49987 DE=54.64
 ------------------------
 Symbolic Z-matrix:
 Charge = -1 Multiplicity = 1

                          Input orientation:
 ---------------------------------------------------------------------
 Center     Atomic      Atomic             Coordinates (Angstroms)
 Number     Number       Type             X           Y           Z
 ---------------------------------------------------------------------
      1          6           0       -0.057283    0.000006   -0.000139
      2         17           0       -2.190972   -0.000002    0.000053
      3          1           0        0.094917    0.002492   -1.066580
      4          1           0        0.095165    0.922365    0.535152
      5          1           0        0.095160   -0.924840    0.530843
      6          6           0        2.327949    0.000006   -0.000227
      7          7           0        3.504968   -0.000008    0.000224
 ---------------------------------------------------------------------

 SCF Done:  E(RB3LYP) =  -592.987330376     A.U. after   12 cycles

 Alpha  occ. eigenvalues -- -101.35603 -14.12598 -10.11044  -9.99542  -9.27092
 Alpha  occ. eigenvalues --   -7.03231  -7.02659  -7.02659  -0.68061  -0.63771
 Alpha  occ. eigenvalues --   -0.54217  -0.30564  -0.30563  -0.23212  -0.18909
 Alpha  occ. eigenvalues --   -0.13948  -0.13948  -0.12729  -0.12729  -0.09539
 Alpha virt. eigenvalues --    0.11203   0.12513   0.14874   0.14874   0.16011
 Alpha virt. eigenvalues --    0.19103   0.20369   0.20369   0.22313   0.22314
 Alpha virt. eigenvalues --    0.24745   0.24745   0.25060   0.25861   0.25862

 Mulliken charges:
               1
     1  C   -0.349291
     2  Cl  -0.478049
     3  H    0.212112
     4  H    0.212106
     5  H    0.212106
     6  C   -0.247930
     7  N   -0.561055
 Sum of Mulliken charges =  -1.00000

 Dipole moment (field-independent basis, Debye):
    X=             -5.3940    Y=              0.0000    Z=             -0.0004  Tot=              5.3940
 Quadrupole moment (field-independent basis, Debye-Ang):
   XX=            -87.8712   YY=            -35.2719   ZZ=            -35.2725
   XY=              0.0001   XZ=             -0.0008   YZ=              0.0000

  Exact polarizability: 121.312  -0.000  38.826   0.002   0.000  38.826
 Approx polarizability: 156.203  -0.000  48.704   0.005   0.000  48.703

 ******    1 imaginary frequencies (negative Signs) ******

                      1                      2                      3
                      A                      A                      A
 Frequencies --   -346.6855                42.7767                42.8093
 Red. masses --     11.8008                 8.3690                 8.3697
 Frc consts  --      0.8357                 0.0090                 0.0090
 IR Inten    --   1064.6149                 3.1436                 3.1425

                      4                      5                      6
                      A                      A                      A
 Frequencies --    233.4366               253.7224               253.7383
 Red. masses --     18.2126                 4.9585                 4.9584
 Frc consts  --      0.5847                 0.1881                 0.1881
 IR Inten    --      6.5931                12.7473                12.7477

                      7                      8                      9
                      A                      A                      A
 Frequencies --    979.9096               980.0114              1099.8517
 Red. masses --      1.0352                 1.0352                 1.0505
 Frc consts  --      0.5856                 0.5858                 0.7487
 IR Inten    --      0.0202                 0.0203                88.6782

                     10                     11                     12
                      A                      A                      A
 Frequencies --   1415.8858              1415.9306              2176.1990
 Red. masses --      1.0954                 1.0954                12.7580
 Frc consts  --      1.2938                 1.2939                35.5984
 IR Inten    --      4.5223                 4.5201                 3.2232

                     13                     14                     15
                      A                      A                      A
 Frequencies --   3181.9297              3368.8811              3368.9915
 Red. masses --      1.0110                 1.1217                 1.1217
 Frc consts  --      6.0311                 7.5004                 7.5008
 IR Inten    --      1.3200                 1.2171                 1.2144

 - Thermochemistry -
 -------------------
 Temperature   298.150 Kelvin.  Pressure   1.00000 Atm.
 Atom     1 has atomic number  6 and mass  12.00000

 Molecular mass:    75.99540 amu.
 Principal axes and moments of inertia in atomic units:
                           1         2         3
     Eigenvalues --    12.279351452.373451452.37459
           X            1.00000   0.00000  -0.00000
           Y           -0.00000   0.99996  -0.00843
           Z            0.00000   0.00843   0.99996
 This molecule is an asymmetric top.
 Rotational symmetry number  1.
 Rotational temperatures (Kelvin)      7.05363     0.05964     0.05964
 Rotational constants (GHZ):         146.97373     1.24262     1.24261
    1 imaginary frequencies ignored.
 Zero-point vibrational energy     112533.2 (Joules/Mol)
                                   26.89607 (Kcal/Mol)
 Warning -- explicit consideration of   5 degrees of freedom as
           vibrations may cause significant error
 Vibrational temperatures:     61.55    61.59   335.86   365.05   365.07
          (Kelvin)           1409.87  1410.02  1582.44  2037.14  2037.21
                             3131.06  4578.09  4847.07  4847.23

 Zero-point correction=                           0.042862 (Hartree/Particle)
 Thermal correction to Energy=                    0.048986
 Thermal correction to Enthalpy=                  0.049930
 Thermal correction to Gibbs Free Energy=         0.012169
 Sum of electronic and zero-point Energies=           -592.944469
 Sum of electronic and thermal Energies=              -592.938345
 Sum of electronic and thermal Enthalpies=            -592.937400
 Sum of electronic and thermal Free Energies=         -592.975162

                     E (Thermal)             CV                S
                      KCal/Mol        Cal/Mol-Kelvin    Cal/Mol-Kelvin
 Total                   30.739             16.511             79.475
 Electronic               0.000              0.000              0.000
 Translational            0.889              2.981             38.900
 Rotational               0.889              2.981             24.764
 Vibrational             28.962             10.549             15.812
 Vibration     1          0.595              1.980              5.126
 Vibration     2          0.595              1.980              5.125
 Vibration     3          0.654              1.790              1.852
 Vibration     4          0.665              1.757              1.705
 Vibration     5          0.665              1.756              1.704

 Normal termination of Gaussian 16 at Sun Oct 13 09:51:02 2024.
