 Gaussian 16, Revision B.01,
 Gaussian 16:  ES64L-G16RevB.01 20-Dec-2017

 ---------------------------------------------------------------------
 #p b3lyp 6-31++g(d,p) scf=verytight NoSymm freq=noraman int=ultrafine
 ---------------------------------------------------------------------

 ------------------------
 RxCoord=0.59984 DE=54.37
 ------------------------
 Symbolic Z-matrix:
 Charge = -1 Multiplicity = 1

                          Input orientation:
 ---------------------------------------------------------------------
 Center     Atomic      Atomic             Coordinates (Angstroms)
 Number     Number       Type             X           Y           Z
 ---------------------------------------------------------------------
      1          6           0       -0.071065    0.000007   -0.000139
      2         17           0       -2.188617   -0.000001    0.000051
      3          1           0        0.092831    0.002488   -1.065136
      4          1           0        0.093109    0.921120    0.534410
      5          1           0        0.093104   -0.923589    0.530110
      6          6           0        2.331357    0.000005   -0.000221
      7          7           0        3.508421   -0.000008    0.000225
 ---------------------------------------------------------------------

 SCF Done:  E(RB3LYP) =  -592.987563610     A.U. after   12 cycles

 Alpha  occ. eigenvalues -- -101.35907 -14.12384 -10.10976  -9.99279  -9.27399
 Alpha  occ. eigenvalues --   -7.03549  -7.02961  -7.02961  -0.67847  -0.64116
 Alpha  occ. eigenvalues --   -0.54189  -0.30512  -0.30510  -0.23185  -0.19025
 Alpha  occ. eigenvalues --   -0.14165  -0.14165  -0.12541  -0.12541  -0.09392
 Alpha virt. eigenvalues --    0.11216   0.12520   0.14873   0.14873   0.16042
 Alpha virt. eigenvalues --    0.19111   0.20418   0.20418   0.22287   0.22288
 Alpha virt. eigenvalues --    0.24794   0.24794   0.25034   0.25937   0.25937

 Mulliken charges:
               1
     1  C   -0.350975
     2  Cl  -0.463607
     3  H    0.211829
     4  H    0.211826
     5  H    0.211825
     6  C   -0.261467
     7  N   -0.559431
 Sum of Mulliken charges =  -1.00000

 Dipole moment (field-independent basis, Debye):
    X=             -5.6578    Y=              0.0000    Z=             -0.0004  Tot=              5.6578
 Quadrupole moment (field-independent basis, Debye-Ang):
   XX=            -87.8937   YY=            -35.2805   ZZ=            -35.2812
   XY=              0.0001   XZ=             -0.0008   YZ=              0.0000

  Exact polarizability: 120.251  -0.000  38.849   0.002  -0.000  38.850
 Approx polarizability: 154.446  -0.000  48.742   0.005   0.000  48.740

 ******    1 imaginary frequencies (negative Signs) ******

                      1                      2                      3
                      A                      A                      A
 Frequencies --   -327.0573                28.1974                28.2382
 Red. masses --     11.6201                 8.5241                 8.5247
 Frc consts  --      0.7323                 0.0040                 0.0040
 IR Inten    --   1029.7958                 2.6731                 2.6723

                      4                      5                      6
                      A                      A                      A
 Frequencies --    234.7423               249.0747               249.0896
 Red. masses --     18.2098                 4.8632                 4.8632
 Frc consts  --      0.5912                 0.1778                 0.1778
 IR Inten    --      8.1566                12.9550                12.9552

                      7                      8                      9
                      A                      A                      A
 Frequencies --    979.9476               980.0523              1109.1395
 Red. masses --      1.0389                 1.0389                 1.0514
 Frc consts  --      0.5878                 0.5879                 0.7620
 IR Inten    --      0.0188                 0.0189                86.8515

                     10                     11                     12
                      A                      A                      A
 Frequencies --   1417.6869              1417.7403              2176.0038
 Red. masses --      1.0938                 1.0938                12.7621
 Frc consts  --      1.2952                 1.2953                35.6034
 IR Inten    --      4.6207                 4.6180                 3.8185

                     13                     14                     15
                      A                      A                      A
 Frequencies --   3179.9681              3364.7116              3364.8173
 Red. masses --      1.0116                 1.1213                 1.1213
 Frc consts  --      6.0268                 7.4792                 7.4796
 IR Inten    --      1.6061                 1.0699                 1.0668

 - Thermochemistry -
 -------------------
 Temperature   298.150 Kelvin.  Pressure   1.00000 Atm.
 Atom     1 has atomic number  6 and mass  12.00000

 Molecular mass:    75.99540 amu.
 Principal axes and moments of inertia in atomic units:
                           1         2         3
     Eigenvalues --    12.246031453.031821453.03311
           X            1.00000   0.00000  -0.00000
           Y           -0.00000   0.99999  -0.00521
           Z            0.00000   0.00521   0.99999
 This molecule is an asymmetric top.
 Rotational symmetry number  1.
 Rotational temperatures (Kelvin)      7.07282     0.05961     0.05961
 Rotational constants (GHZ):         147.37358     1.24205     1.24205
    1 imaginary frequencies ignored.
 Zero-point vibrational energy     112325.8 (Joules/Mol)
                                   26.84651 (Kcal/Mol)
 Warning -- explicit consideration of   5 degrees of freedom as
           vibrations may cause significant error
 Vibrational temperatures:     40.57    40.63   337.74   358.36   358.38
          (Kelvin)           1409.93  1410.08  1595.80  2039.74  2039.81
                             3130.78  4575.26  4841.07  4841.22

 Zero-point correction=                           0.042783 (Hartree/Particle)
 Thermal correction to Energy=                    0.048979
 Thermal correction to Enthalpy=                  0.049924
 Thermal correction to Gibbs Free Energy=         0.011354
 Sum of electronic and zero-point Energies=           -592.944781
 Sum of electronic and thermal Energies=              -592.938584
 Sum of electronic and thermal Enthalpies=            -592.937640
 Sum of electronic and thermal Free Energies=         -592.976210

                     E (Thermal)             CV                S
                      KCal/Mol        Cal/Mol-Kelvin    Cal/Mol-Kelvin
 Total                   30.735             16.523             81.177
 Electronic               0.000              0.000              0.000
 Translational            0.889              2.981             38.900
 Rotational               0.889              2.981             24.762
 Vibrational             28.958             10.561             17.515
 Vibration     1          0.593              1.984              5.952
 Vibration     2          0.593              1.984              5.949
 Vibration     3          0.655              1.788              1.842
 Vibration     4          0.662              1.764              1.737
 Vibration     5          0.662              1.764              1.737

 Normal termination of Gaussian 16 at Sun Oct 13 09:51:03 2024.
