 Gaussian 16, Revision B.01,
 Gaussian 16:  ES64L-G16RevB.01 20-Dec-2017

 ---------------------------------------------------------------------
 #p b3lyp 6-31++g(d,p) scf=verytight NoSymm freq=noraman int=ultrafine
 ---------------------------------------------------------------------

 ------------------------
 RxCoord=0.69982 DE=54.05
 ------------------------
 Symbolic Z-matrix:
 Charge = -1 Multiplicity = 1

                          Input orientation:
 ---------------------------------------------------------------------
 Center     Atomic      Atomic             Coordinates (Angstroms)
 Number     Number       Type             X           Y           Z
 ---------------------------------------------------------------------
      1          6           0       -0.084829    0.000007   -0.000140
      2         17           0       -2.186247   -0.000001    0.000049
      3          1           0        0.090510    0.002483   -1.063619
      4          1           0        0.090816    0.919812    0.533628
      5          1           0        0.090812   -0.922276    0.529337
      6          6           0        2.334760    0.000005   -0.000213
      7          7           0        3.511878   -0.000008    0.000227
 ---------------------------------------------------------------------

 SCF Done:  E(RB3LYP) =  -592.987837071     A.U. after   12 cycles

 Alpha  occ. eigenvalues -- -101.36207 -14.12176 -10.10905  -9.99025  -9.27703
 Alpha  occ. eigenvalues --   -7.03863  -7.03259  -7.03259  -0.67638  -0.64466
 Alpha  occ. eigenvalues --   -0.54159  -0.30459  -0.30457  -0.23198  -0.19120
 Alpha  occ. eigenvalues --   -0.14383  -0.14383  -0.12352  -0.12352  -0.09240
 Alpha virt. eigenvalues --    0.11228   0.12534   0.14871   0.14871   0.16077
 Alpha virt. eigenvalues --    0.19124   0.20461   0.20462   0.22263   0.22264
 Alpha virt. eigenvalues --    0.24837   0.24837   0.25006   0.26018   0.26018

 Mulliken charges:
               1
     1  C   -0.352711
     2  Cl  -0.448963
     3  H    0.211573
     4  H    0.211572
     5  H    0.211571
     6  C   -0.275372
     7  N   -0.557670
 Sum of Mulliken charges =  -1.00000

 Dipole moment (field-independent basis, Debye):
    X=             -5.9173    Y=              0.0000    Z=             -0.0004  Tot=              5.9173
 Quadrupole moment (field-independent basis, Debye-Ang):
   XX=            -87.9144   YY=            -35.2895   ZZ=            -35.2903
   XY=              0.0001   XZ=             -0.0009   YZ=              0.0000

  Exact polarizability: 119.095  -0.000  38.877   0.003  -0.000  38.877
 Approx polarizability: 152.546  -0.000  48.782   0.005   0.000  48.780

 ******    3 imaginary frequencies (negative Signs) ******

                      1                      2                      3
                      A                      A                      A
 Frequencies --   -305.2178               -14.6384               -14.5760
 Red. masses --     11.4154                 8.6803                 8.6807
 Frc consts  --      0.6266                 0.0011                 0.0011
 IR Inten    --    992.5164                 2.2484                 2.2477

                      4                      5                      6
                      A                      A                      A
 Frequencies --    236.4012               244.3958               244.4087
 Red. masses --     18.2327                 4.7679                 4.7679
 Frc consts  --      0.6003                 0.1678                 0.1678
 IR Inten    --     10.7026                13.1169                13.1168

                      7                      8                      9
                      A                      A                      A
 Frequencies --    980.2097               980.3169              1118.8439
 Red. masses --      1.0429                 1.0430                 1.0524
 Frc consts  --      0.5904                 0.5905                 0.7762
 IR Inten    --      0.0178                 0.0179                84.6808

                     10                     11                     12
                      A                      A                      A
 Frequencies --   1419.5535              1419.6174              2175.7305
 Red. masses --      1.0921                 1.0921                12.7661
 Frc consts  --      1.2967                 1.2968                35.6055
 IR Inten    --      4.7283                 4.7250                 4.4446

                     13                     14                     15
                      A                      A                      A
 Frequencies --   3177.9002              3360.2928              3360.3991
 Red. masses --      1.0121                 1.1209                 1.1208
 Frc consts  --      6.0223                 7.4568                 7.4572
 IR Inten    --      1.9123                 0.9277                 0.9243

 - Thermochemistry -
 -------------------
 Temperature   298.150 Kelvin.  Pressure   1.00000 Atm.
 Atom     1 has atomic number  6 and mass  12.00000

 Molecular mass:    75.99540 amu.
 Principal axes and moments of inertia in atomic units:
                           1         2         3
     Eigenvalues --    12.211061453.700911453.70238
           X            1.00000   0.00000  -0.00000
           Y           -0.00000   0.99999  -0.00393
           Z            0.00000   0.00393   0.99999
 This molecule is an asymmetric top.
 Rotational symmetry number  1.
 Rotational temperatures (Kelvin)      7.09307     0.05958     0.05958
 Rotational constants (GHZ):         147.79557     1.24148     1.24148
    3 imaginary frequencies ignored.
 Zero-point vibrational energy     111958.9 (Joules/Mol)
                                   26.75882 (Kcal/Mol)
 Warning -- explicit consideration of   3 degrees of freedom as
           vibrations may cause significant error
 Vibrational temperatures:    340.13   351.63   351.65  1410.30  1410.46
          (Kelvin)           1609.77  2042.42  2042.51  3130.39  4572.29
                             4834.71  4834.86

 Zero-point correction=                           0.042643 (Hartree/Particle)
 Thermal correction to Energy=                    0.047087
 Thermal correction to Enthalpy=                  0.048031
 Thermal correction to Gibbs Free Energy=         0.015093
 Sum of electronic and zero-point Energies=           -592.945194
 Sum of electronic and thermal Energies=              -592.940750
 Sum of electronic and thermal Enthalpies=            -592.939806
 Sum of electronic and thermal Free Energies=         -592.972744

                     E (Thermal)             CV                S
                      KCal/Mol        Cal/Mol-Kelvin    Cal/Mol-Kelvin
 Total                   29.547             12.558             69.325
 Electronic               0.000              0.000              0.000
 Translational            0.889              2.981             38.900
 Rotational               0.889              2.981             24.760
 Vibrational             27.770              6.596              5.665
 Vibration     1          0.655              1.785              1.830
 Vibration     2          0.660              1.772              1.771
 Vibration     3          0.660              1.772              1.771

 Normal termination of Gaussian 16 at Sun Oct 13 09:51:07 2024.
