 Gaussian 16, Revision B.01,
 Gaussian 16:  ES64L-G16RevB.01 20-Dec-2017

 ---------------------------------------------------------------------
 #p b3lyp 6-31++g(d,p) scf=verytight NoSymm freq=noraman int=ultrafine
 ---------------------------------------------------------------------

 ------------------------
 RxCoord=0.79980 DE=53.70
 ------------------------
 Symbolic Z-matrix:
 Charge = -1 Multiplicity = 1

                          Input orientation:
 ---------------------------------------------------------------------
 Center     Atomic      Atomic             Coordinates (Angstroms)
 Number     Number       Type             X           Y           Z
 ---------------------------------------------------------------------
      1          6           0       -0.098571    0.000007   -0.000141
      2         17           0       -2.183867   -0.000001    0.000048
      3          1           0        0.087943    0.002478   -1.062038
      4          1           0        0.088278    0.918449    0.532811
      5          1           0        0.088275   -0.920907    0.528529
      6          6           0        2.338164    0.000004   -0.000205
      7          7           0        3.515346   -0.000008    0.000228
 ---------------------------------------------------------------------

 SCF Done:  E(RB3LYP) =  -592.988145377     A.U. after   12 cycles

 Alpha  occ. eigenvalues -- -101.36502 -14.11973 -10.10832  -9.98778  -9.28003
 Alpha  occ. eigenvalues --   -7.04173  -7.03553  -7.03553  -0.67436  -0.64821
 Alpha  occ. eigenvalues --   -0.54126  -0.30407  -0.30405  -0.23252  -0.19189
 Alpha  occ. eigenvalues --   -0.14598  -0.14598  -0.12166  -0.12166  -0.09086
 Alpha virt. eigenvalues --    0.11239   0.12554   0.14868   0.14868   0.16114
 Alpha virt. eigenvalues --    0.19145   0.20499   0.20500   0.22242   0.22243
 Alpha virt. eigenvalues --    0.24874   0.24874   0.24976   0.26104   0.26104

 Mulliken charges:
               1
     1  C   -0.354553
     2  Cl  -0.434137
     3  H    0.211347
     4  H    0.211348
     5  H    0.211348
     6  C   -0.289573
     7  N   -0.555780
 Sum of Mulliken charges =  -1.00000

 Dipole moment (field-independent basis, Debye):
    X=             -6.1724    Y=              0.0000    Z=             -0.0004  Tot=              6.1724
 Quadrupole moment (field-independent basis, Debye-Ang):
   XX=            -87.9337   YY=            -35.2988   ZZ=            -35.2996
   XY=              0.0001   XZ=             -0.0009   YZ=              0.0000

  Exact polarizability: 117.848  -0.000  38.907   0.003  -0.000  38.907
 Approx polarizability: 150.513  -0.000  48.825   0.005   0.000  48.823

 ******    3 imaginary frequencies (negative Signs) ******

                      1                      2                      3
                      A                      A                      A
 Frequencies --   -280.7067               -34.4818               -34.4609
 Red. masses --     11.1877                 8.8362                 8.8365
 Frc consts  --      0.5194                 0.0062                 0.0062
 IR Inten    --    952.3463                 1.8690                 1.8685

                      4                      5                      6
                      A                      A                      A
 Frequencies --    238.5458               239.6704               239.6809
 Red. masses --     18.2621                 4.6735                 4.6754
 Frc consts  --      0.6123                 0.1582                 0.1582
 IR Inten    --     14.8558                13.2341                13.2342

                      7                      8                      9
                      A                      A                      A
 Frequencies --    980.7149               980.8198              1128.8958
 Red. masses --      1.0473                 1.0473                 1.0535
 Frc consts  --      0.5935                 0.5936                 0.7910
 IR Inten    --      0.0173                 0.0173                82.1755

                     10                     11                     12
                      A                      A                      A
 Frequencies --   1421.4739              1421.5526              2175.3724
 Red. masses --      1.0904                 1.0904                12.7699
 Frc consts  --      1.2981                 1.2983                35.6044
 IR Inten    --      4.8444                 4.8404                 5.0961

                     13                     14                     15
                      A                      A                      A
 Frequencies --   3175.7332              3355.6462              3355.7493
 Red. masses --      1.0127                 1.1204                 1.1204
 Frc consts  --      6.0175                 7.4333                 7.4337
 IR Inten    --      2.2381                 0.7922                 0.7885

 - Thermochemistry -
 -------------------
 Temperature   298.150 Kelvin.  Pressure   1.00000 Atm.
 Atom     1 has atomic number  6 and mass  12.00000

 Molecular mass:    75.99540 amu.
 Principal axes and moments of inertia in atomic units:
                           1         2         3
     Eigenvalues --    12.174661454.387171454.38885
           X            1.00000   0.00000  -0.00001
           Y           -0.00000   0.99999  -0.00406
           Z            0.00001   0.00406   0.99999
 This molecule is an asymmetric top.
 Rotational symmetry number  1.
 Rotational temperatures (Kelvin)      7.11428     0.05955     0.05955
 Rotational constants (GHZ):         148.23753     1.24089     1.24089
    3 imaginary frequencies ignored.
 Zero-point vibrational energy     111933.7 (Joules/Mol)
                                   26.75280 (Kcal/Mol)
 Warning -- explicit consideration of   3 degrees of freedom as
           vibrations may cause significant error
 Vibrational temperatures:    343.21   344.83   344.85  1411.03  1411.18
          (Kelvin)           1624.23  2045.18  2045.30  3129.88  4569.17
                             4828.03  4828.17

 Zero-point correction=                           0.042633 (Hartree/Particle)
 Thermal correction to Energy=                    0.047086
 Thermal correction to Enthalpy=                  0.048031
 Thermal correction to Gibbs Free Energy=         0.015069
 Sum of electronic and zero-point Energies=           -592.945512
 Sum of electronic and thermal Energies=              -592.941059
 Sum of electronic and thermal Enthalpies=            -592.940115
 Sum of electronic and thermal Free Energies=         -592.973076

                     E (Thermal)             CV                S
                      KCal/Mol        Cal/Mol-Kelvin    Cal/Mol-Kelvin
 Total                   29.547             12.559             69.373
 Electronic               0.000              0.000              0.000
 Translational            0.889              2.981             38.900
 Rotational               0.889              2.981             24.758
 Vibrational             27.770              6.598              5.715
 Vibration     1          0.657              1.782              1.814
 Vibration     2          0.657              1.780              1.805
 Vibration     3          0.657              1.780              1.805

 Normal termination of Gaussian 16 at Sun Oct 13 09:51:10 2024.
