 Gaussian 16, Revision B.01,
 Gaussian 16:  ES64L-G16RevB.01 20-Dec-2017

 ---------------------------------------------------------------------
 #p b3lyp 6-31++g(d,p) scf=verytight NoSymm freq=noraman int=ultrafine
 ---------------------------------------------------------------------

 ------------------------
 RxCoord=0.89977 DE=53.33
 ------------------------
 Symbolic Z-matrix:
 Charge = -1 Multiplicity = 1

                          Input orientation:
 ---------------------------------------------------------------------
 Center     Atomic      Atomic             Coordinates (Angstroms)
 Number     Number       Type             X           Y           Z
 ---------------------------------------------------------------------
      1          6           0       -0.112291    0.000007   -0.000144
      2         17           0       -2.181485   -0.000001    0.000046
      3          1           0        0.085125    0.002472   -1.060401
      4          1           0        0.085487    0.917035    0.531962
      5          1           0        0.085486   -0.919487    0.527690
      6          6           0        2.341578    0.000004   -0.000196
      7          7           0        3.518832   -0.000008    0.000229
 ---------------------------------------------------------------------

 SCF Done:  E(RB3LYP) =  -592.988482984     A.U. after   12 cycles

 Alpha  occ. eigenvalues -- -101.36793 -14.11777 -10.10756  -9.98540  -9.28299
 Alpha  occ. eigenvalues --   -7.04479  -7.03843  -7.03843  -0.67239  -0.65180
 Alpha  occ. eigenvalues --   -0.54091  -0.30357  -0.30355  -0.23347  -0.19233
 Alpha  occ. eigenvalues --   -0.14809  -0.14809  -0.11984  -0.11983  -0.08931
 Alpha virt. eigenvalues --    0.11248   0.12581   0.14864   0.14864   0.16156
 Alpha virt. eigenvalues --    0.19172   0.20532   0.20532   0.22224   0.22225
 Alpha virt. eigenvalues --    0.24905   0.24906   0.24945   0.26193   0.26193

 Mulliken charges:
               1
     1  C   -0.356552
     2  Cl  -0.419147
     3  H    0.211153
     4  H    0.211157
     5  H    0.211156
     6  C   -0.303998
     7  N   -0.553769
 Sum of Mulliken charges =  -1.00000

 Dipole moment (field-independent basis, Debye):
    X=             -6.4227    Y=              0.0000    Z=             -0.0005  Tot=              6.4227
 Quadrupole moment (field-independent basis, Debye-Ang):
   XX=            -87.9520   YY=            -35.3083   ZZ=            -35.3092
   XY=              0.0001   XZ=             -0.0009   YZ=              0.0000

  Exact polarizability: 116.513  -0.000  38.940   0.003  -0.000  38.940
 Approx polarizability: 148.361  -0.000  48.870   0.006   0.000  48.868

 ******    3 imaginary frequencies (negative Signs) ******

                      1                      2                      3
                      A                      A                      A
 Frequencies --   -252.8903               -46.1481               -46.1356
 Red. masses --     10.9394                 8.9914                 8.9914
 Frc consts  --      0.4122                 0.0113                 0.0113
 IR Inten    --    908.3601                 1.5332                 1.5329

                      4                      5                      6
                      A                      A                      A
 Frequencies --    234.8766               234.8825               241.3802
 Red. masses --      4.5807                 4.5808                18.3865
 Frc consts  --      0.1489                 0.1489                 0.6312
 IR Inten    --     13.3091                13.3088                21.7206

                      7                      8                      9
                      A                      A                      A
 Frequencies --    981.4675               981.5666              1139.2268
 Red. masses --      1.0520                 1.0520                 1.0548
 Frc consts  --      0.5971                 0.5972                 0.8065
 IR Inten    --      0.0173                 0.0173                79.3509

                     10                     11                     12
                      A                      A                      A
 Frequencies --   1423.4384              1423.5330              2174.9440
 Red. masses --      1.0887                 1.0887                12.7735
 Frc consts  --      1.2997                 1.2998                35.6006
 IR Inten    --      4.9683                 4.9637                 5.7676

                     13                     14                     15
                      A                      A                      A
 Frequencies --   3173.4889              3350.8013              3350.9011
 Red. masses --      1.0133                 1.1200                 1.1199
 Frc consts  --      6.0127                 7.4089                 7.4092
 IR Inten    --      2.5836                 0.6648                 0.6607

 - Thermochemistry -
 -------------------
 Temperature   298.150 Kelvin.  Pressure   1.00000 Atm.
 Atom     1 has atomic number  6 and mass  12.00000

 Molecular mass:    75.99540 amu.
 Principal axes and moments of inertia in atomic units:
                           1         2         3
     Eigenvalues --    12.136961455.099301455.10119
           X            1.00000   0.00000  -0.00001
           Y           -0.00000   0.99999  -0.00443
           Z            0.00001   0.00443   0.99999
 This molecule is an asymmetric top.
 Rotational symmetry number  1.
 Rotational temperatures (Kelvin)      7.13637     0.05952     0.05952
 Rotational constants (GHZ):         148.69791     1.24029     1.24029
    3 imaginary frequencies ignored.
 Zero-point vibrational energy     111913.7 (Joules/Mol)
                                   26.74801 (Kcal/Mol)
 Warning -- explicit consideration of   3 degrees of freedom as
           vibrations may cause significant error
 Vibrational temperatures:    337.93   337.94   347.29  1412.11  1412.26
          (Kelvin)           1639.09  2048.01  2048.15  3129.26  4565.94
                             4821.06  4821.20

 Zero-point correction=                           0.042626 (Hartree/Particle)
 Thermal correction to Energy=                    0.047087
 Thermal correction to Enthalpy=                  0.048032
 Thermal correction to Gibbs Free Energy=         0.015048
 Sum of electronic and zero-point Energies=           -592.945857
 Sum of electronic and thermal Energies=              -592.941396
 Sum of electronic and thermal Enthalpies=            -592.940451
 Sum of electronic and thermal Free Energies=         -592.973434

                     E (Thermal)             CV                S
                      KCal/Mol        Cal/Mol-Kelvin    Cal/Mol-Kelvin
 Total                   29.548             12.559             69.419
 Electronic               0.000              0.000              0.000
 Translational            0.889              2.981             38.900
 Rotational               0.889              2.981             24.756
 Vibrational             27.770              6.597              5.763
 Vibration     1          0.655              1.787              1.841
 Vibration     2          0.655              1.787              1.841
 Vibration     3          0.658              1.777              1.793

 Normal termination of Gaussian 16 at Sun Oct 13 09:51:13 2024.
