 Gaussian 16, Revision B.01,
 Gaussian 16:  ES64L-G16RevB.01 20-Dec-2017

 ---------------------------------------------------------------------
 #p b3lyp 6-31++g(d,p) scf=verytight NoSymm freq=noraman int=ultrafine
 ---------------------------------------------------------------------

 ------------------------
 RxCoord=0.99975 DE=52.93
 ------------------------
 Symbolic Z-matrix:
 Charge = -1 Multiplicity = 1

                          Input orientation:
 ---------------------------------------------------------------------
 Center     Atomic      Atomic             Coordinates (Angstroms)
 Number     Number       Type             X           Y           Z
 ---------------------------------------------------------------------
      1          6           0       -0.125984    0.000007   -0.000148
      2         17           0       -2.179106   -0.000001    0.000045
      3          1           0        0.082050    0.002467   -1.058716
      4          1           0        0.082436    0.915578    0.531088
      5          1           0        0.082436   -0.918024    0.526826
      6          6           0        2.345011    0.000004   -0.000187
      7          7           0        3.522346   -0.000008    0.000231
 ---------------------------------------------------------------------

 SCF Done:  E(RB3LYP) =  -592.988844035     A.U. after   12 cycles

 Alpha  occ. eigenvalues -- -101.37079 -14.11588 -10.10678  -9.98311  -9.28589
 Alpha  occ. eigenvalues --   -7.04779  -7.04128  -7.04128  -0.67050  -0.65542
 Alpha  occ. eigenvalues --   -0.54053  -0.30310  -0.30307  -0.23481  -0.19249
 Alpha  occ. eigenvalues --   -0.15014  -0.15014  -0.11806  -0.11806  -0.08777
 Alpha virt. eigenvalues --    0.11255   0.12612   0.14859   0.14859   0.16202
 Alpha virt. eigenvalues --    0.19207   0.20559   0.20559   0.22208   0.22210
 Alpha virt. eigenvalues --    0.24912   0.24933   0.24933   0.26284   0.26284

 Mulliken charges:
               1
     1  C   -0.358751
     2  Cl  -0.404019
     3  H    0.210993
     4  H    0.211000
     5  H    0.211000
     6  C   -0.318576
     7  N   -0.551646
 Sum of Mulliken charges =  -1.00000

 Dipole moment (field-independent basis, Debye):
    X=             -6.6679    Y=              0.0000    Z=             -0.0005  Tot=              6.6679
 Quadrupole moment (field-independent basis, Debye-Ang):
   XX=            -87.9699   YY=            -35.3178   ZZ=            -35.3188
   XY=              0.0001   XZ=             -0.0009   YZ=              0.0000

  Exact polarizability: 115.095  -0.000  38.975   0.003  -0.000  38.975
 Approx polarizability: 146.104  -0.000  48.917   0.006   0.000  48.915

 ******    3 imaginary frequencies (negative Signs) ******

                      1                      2                      3
                      A                      A                      A
 Frequencies --   -220.8410               -55.0248               -55.0164
 Red. masses --     10.6762                 9.1440                 9.1438
 Frc consts  --      0.3068                 0.0163                 0.0163
 IR Inten    --    858.7673                 1.2397                 1.2396

                      4                      5                      6
                      A                      A                      A
 Frequencies --    229.9934               229.9948               245.2262
 Red. masses --      4.4903                 4.4904                18.5215
 Frc consts  --      0.1399                 0.1399                 0.6562
 IR Inten    --     13.3440                13.3435                33.2753

                      7                      8                      9
                      A                      A                      A
 Frequencies --    982.4800               982.5720              1149.7771
 Red. masses --      1.0569                 1.0569                 1.0561
 Frc consts  --      0.6011                 0.6012                 0.8226
 IR Inten    --      0.0178                 0.0177                76.2310

                     10                     11                     12
                      A                      A                      A
 Frequencies --   1425.4398              1425.5504              2174.4385
 Red. masses --      1.0869                 1.0869                12.7771
 Frc consts  --      1.3012                 1.3014                35.5939
 IR Inten    --      5.0994                 5.0942                 6.4539

                     13                     14                     15
                      A                      A                      A
 Frequencies --   3171.1726              3345.7731              3345.8711
 Red. masses --      1.0139                 1.1195                 1.1195
 Frc consts  --      6.0076                 7.3836                 7.3839
 IR Inten    --      2.9497                 0.5465                 0.5423

 - Thermochemistry -
 -------------------
 Temperature   298.150 Kelvin.  Pressure   1.00000 Atm.
 Atom     1 has atomic number  6 and mass  12.00000

 Molecular mass:    75.99540 amu.
 Principal axes and moments of inertia in atomic units:
                           1         2         3
     Eigenvalues --    12.098211455.845401455.84748
           X            1.00000   0.00000  -0.00001
           Y           -0.00000   1.00000  -0.00291
           Z            0.00001   0.00291   1.00000
 This molecule is an asymmetric top.
 Rotational symmetry number  1.
 Rotational temperatures (Kelvin)      7.15924     0.05949     0.05949
 Rotational constants (GHZ):         149.17429     1.23965     1.23965
    3 imaginary frequencies ignored.
 Zero-point vibrational energy     111900.4 (Joules/Mol)
                                   26.74484 (Kcal/Mol)
 Warning -- explicit consideration of   3 degrees of freedom as
           vibrations may cause significant error
 Vibrational temperatures:    330.91   330.91   352.83  1413.57  1413.70
          (Kelvin)           1654.27  2050.89  2051.05  3128.53  4562.61
                             4813.82  4813.96

 Zero-point correction=                           0.042621 (Hartree/Particle)
 Thermal correction to Energy=                    0.047090
 Thermal correction to Enthalpy=                  0.048034
 Thermal correction to Gibbs Free Energy=         0.015031
 Sum of electronic and zero-point Energies=           -592.946223
 Sum of electronic and thermal Energies=              -592.941754
 Sum of electronic and thermal Enthalpies=            -592.940810
 Sum of electronic and thermal Free Energies=         -592.973813

                     E (Thermal)             CV                S
                      KCal/Mol        Cal/Mol-Kelvin    Cal/Mol-Kelvin
 Total                   29.549             12.556             69.460
 Electronic               0.000              0.000              0.000
 Translational            0.889              2.981             38.900
 Rotational               0.889              2.981             24.753
 Vibrational             27.772              6.595              5.807
 Vibration     1          0.652              1.795              1.879
 Vibration     2          0.652              1.795              1.879
 Vibration     3          0.660              1.771              1.765

 Normal termination of Gaussian 16 at Sun Oct 13 09:51:14 2024.
