 Gaussian 16, Revision B.01,
 Gaussian 16:  ES64L-G16RevB.01 20-Dec-2017

 ---------------------------------------------------------------------
 #p b3lyp 6-31++g(d,p) scf=verytight NoSymm freq=noraman int=ultrafine
 ---------------------------------------------------------------------

 ------------------------
 RxCoord=1.09973 DE=52.51
 ------------------------
 Symbolic Z-matrix:
 Charge = -1 Multiplicity = 1

                          Input orientation:
 ---------------------------------------------------------------------
 Center     Atomic      Atomic             Coordinates (Angstroms)
 Number     Number       Type             X           Y           Z
 ---------------------------------------------------------------------
      1          6           0       -0.139648    0.000007   -0.000152
      2         17           0       -2.176740   -0.000001    0.000045
      3          1           0        0.078712    0.002461   -1.056990
      4          1           0        0.079119    0.914084    0.530194
      5          1           0        0.079122   -0.916523    0.525943
      6          6           0        2.348473    0.000003   -0.000178
      7          7           0        3.525896   -0.000008    0.000232
 ---------------------------------------------------------------------

 SCF Done:  E(RB3LYP) =  -592.989222465     A.U. after   12 cycles

 Alpha  occ. eigenvalues -- -101.37358 -14.11405 -10.10598  -9.98091  -9.28875
 Alpha  occ. eigenvalues --   -7.05073  -7.04407  -7.04407  -0.66869  -0.65904
 Alpha  occ. eigenvalues --   -0.54015  -0.30265  -0.30262  -0.23650  -0.19242
 Alpha  occ. eigenvalues --   -0.15213  -0.15213  -0.11633  -0.11633  -0.08623
 Alpha virt. eigenvalues --    0.11259   0.12648   0.14853   0.14853   0.16253
 Alpha virt. eigenvalues --    0.19249   0.20580   0.20580   0.22195   0.22197
 Alpha virt. eigenvalues --    0.24879   0.24957   0.24958   0.26376   0.26376

 Mulliken charges:
               1
     1  C   -0.361190
     2  Cl  -0.388781
     3  H    0.210869
     4  H    0.210879
     5  H    0.210879
     6  C   -0.333233
     7  N   -0.549422
 Sum of Mulliken charges =  -1.00000

 Dipole moment (field-independent basis, Debye):
    X=             -6.9078    Y=              0.0000    Z=             -0.0005  Tot=              6.9078
 Quadrupole moment (field-independent basis, Debye-Ang):
   XX=            -87.9878   YY=            -35.3273   ZZ=            -35.3284
   XY=              0.0001   XZ=             -0.0009   YZ=              0.0000

  Exact polarizability: 113.599  -0.000  39.013   0.003  -0.000  39.013
 Approx polarizability: 143.757  -0.000  48.966   0.006   0.000  48.964

 ******    3 imaginary frequencies (negative Signs) ******

                      1                      2                      3
                      A                      A                      A
 Frequencies --   -183.0198               -62.3312               -62.3249
 Red. masses --     10.4117                 9.2930                 9.2925
 Frc consts  --      0.2055                 0.0213                 0.0213
 IR Inten    --    800.2415                 0.9861                 0.9862

                      4                      5                      6
                      A                      A                      A
 Frequencies --    224.9856               224.9892               250.6098
 Red. masses --      4.4031                 4.4030                18.6648
 Frc consts  --      0.1313                 0.1313                 0.6907
 IR Inten    --     13.3412                13.3419                53.0349

                      7                      8                      9
                      A                      A                      A
 Frequencies --    983.7550               983.8372              1160.4874
 Red. masses --      1.0621                 1.0621                 1.0576
 Frc consts  --      0.6056                 0.6057                 0.8392
 IR Inten    --      0.0189                 0.0188                72.8458

                     10                     11                     12
                      A                      A                      A
 Frequencies --   1427.4699              1427.5960              2173.8702
 Red. masses --      1.0852                 1.0851                12.7805
 Frc consts  --      1.3028                 1.3030                35.5848
 IR Inten    --      5.2368                 5.2311                 7.1499

                     13                     14                     15
                      A                      A                      A
 Frequencies --   3168.8035              3340.5936              3340.6864
 Red. masses --      1.0146                 1.1190                 1.1190
 Frc consts  --      6.0025                 7.3576                 7.3579
 IR Inten    --      3.3381                 0.4383                 0.4341

 - Thermochemistry -
 -------------------
 Temperature   298.150 Kelvin.  Pressure   1.00000 Atm.
 Atom     1 has atomic number  6 and mass  12.00000

 Molecular mass:    75.99540 amu.
 Principal axes and moments of inertia in atomic units:
                           1         2         3
     Eigenvalues --    12.058551456.635811456.63804
           X            1.00000   0.00000  -0.00001
           Y           -0.00000   1.00000  -0.00275
           Z            0.00001   0.00275   1.00000
 This molecule is an asymmetric top.
 Rotational symmetry number  1.
 Rotational temperatures (Kelvin)      7.18278     0.05946     0.05946
 Rotational constants (GHZ):         149.66481     1.23898     1.23898
    3 imaginary frequencies ignored.
 Zero-point vibrational energy     111896.8 (Joules/Mol)
                                   26.74398 (Kcal/Mol)
 Warning -- explicit consideration of   3 degrees of freedom as
           vibrations may cause significant error
 Vibrational temperatures:    323.70   323.71   360.57  1415.40  1415.52
          (Kelvin)           1669.68  2053.81  2053.99  3127.71  4559.20
                             4806.37  4806.50

 Zero-point correction=                           0.042619 (Hartree/Particle)
 Thermal correction to Energy=                    0.047094
 Thermal correction to Enthalpy=                  0.048038
 Thermal correction to Gibbs Free Energy=         0.015019
 Sum of electronic and zero-point Energies=           -592.946603
 Sum of electronic and thermal Energies=              -592.942128
 Sum of electronic and thermal Enthalpies=            -592.941184
 Sum of electronic and thermal Free Energies=         -592.974204

                     E (Thermal)             CV                S
                      KCal/Mol        Cal/Mol-Kelvin    Cal/Mol-Kelvin
 Total                   29.552             12.551             69.496
 Electronic               0.000              0.000              0.000
 Translational            0.889              2.981             38.900
 Rotational               0.889              2.981             24.751
 Vibrational             27.775              6.589              5.844
 Vibration     1          0.650              1.803              1.919
 Vibration     2          0.650              1.803              1.919
 Vibration     3          0.663              1.762              1.726

 Normal termination of Gaussian 16 at Sun Oct 13 09:51:14 2024.
