 Gaussian 16, Revision B.01,
 Gaussian 16:  ES64L-G16RevB.01 20-Dec-2017

 ---------------------------------------------------------------------
 #p b3lyp 6-31++g(d,p) scf=verytight NoSymm freq=noraman int=ultrafine
 ---------------------------------------------------------------------

 ------------------------
 RxCoord=1.19971 DE=52.08
 ------------------------
 Symbolic Z-matrix:
 Charge = -1 Multiplicity = 1

                          Input orientation:
 ---------------------------------------------------------------------
 Center     Atomic      Atomic             Coordinates (Angstroms)
 Number     Number       Type             X           Y           Z
 ---------------------------------------------------------------------
      1          6           0       -0.153278    0.000007   -0.000157
      2         17           0       -2.174396   -0.000001    0.000044
      3          1           0        0.075107    0.002455   -1.055231
      4          1           0        0.075531    0.912559    0.529287
      5          1           0        0.075537   -0.914991    0.525046
      6          6           0        2.351978    0.000003   -0.000169
      7          7           0        3.529497   -0.000007    0.000234
 ---------------------------------------------------------------------

 SCF Done:  E(RB3LYP) =  -592.989612005     A.U. after   12 cycles

 Alpha  occ. eigenvalues -- -101.37632 -14.11228 -10.10516  -9.97880  -9.29154
 Alpha  occ. eigenvalues --   -7.05361  -7.04681  -7.04681  -0.66706  -0.66257
 Alpha  occ. eigenvalues --   -0.53974  -0.30225  -0.30221  -0.23850  -0.19214
 Alpha  occ. eigenvalues --   -0.15404  -0.15404  -0.11465  -0.11465  -0.08472
 Alpha virt. eigenvalues --    0.11261   0.12688   0.14846   0.14846   0.16310
 Alpha virt. eigenvalues --    0.19299   0.20597   0.20597   0.22186   0.22188
 Alpha virt. eigenvalues --    0.24845   0.24979   0.24979   0.26469   0.26469

 Mulliken charges:
               1
     1  C   -0.363900
     2  Cl  -0.373468
     3  H    0.210781
     4  H    0.210794
     5  H    0.210795
     6  C   -0.347897
     7  N   -0.547105
 Sum of Mulliken charges =  -1.00000

 Dipole moment (field-independent basis, Debye):
    X=             -7.1423    Y=              0.0000    Z=             -0.0005  Tot=              7.1423
 Quadrupole moment (field-independent basis, Debye-Ang):
   XX=            -88.0064   YY=            -35.3367   ZZ=            -35.3379
   XY=              0.0000   XZ=             -0.0010   YZ=              0.0000

  Exact polarizability: 112.032  -0.000  39.052   0.003   0.000  39.052
 Approx polarizability: 141.337  -0.000  49.015   0.006   0.000  49.013

 ******    3 imaginary frequencies (negative Signs) ******

                      1                      2                      3
                      A                      A                      A
 Frequencies --   -136.2535               -68.5158               -68.5110
 Red. masses --     10.1775                 9.4362                 9.4355
 Frc consts  --      0.1113                 0.0261                 0.0261
 IR Inten    --    727.2569                 0.7705                 0.7707

                      4                      5                      6
                      A                      A                      A
 Frequencies --    219.8213               219.8301               258.3641
 Red. masses --      4.3194                 4.3193                18.7176
 Frc consts  --      0.1230                 0.1230                 0.7361
 IR Inten    --     13.3048                13.3056                86.7280

                      7                      8                      9
                      A                      A                      A
 Frequencies --    985.2912               985.3654              1171.3033
 Red. masses --      1.0674                 1.0674                 1.0591
 Frc consts  --      0.6105                 0.6106                 0.8561
 IR Inten    --      0.0207                 0.0206                69.2316

                     10                     11                     12
                      A                      A                      A
 Frequencies --   1429.5237              1429.6601              2173.2319
 Red. masses --      1.0834                 1.0834                12.7838
 Frc consts  --      1.3044                 1.3046                35.5730
 IR Inten    --      5.3796                 5.3735                 7.8508

                     13                     14                     15
                      A                      A                      A
 Frequencies --   3166.3977              3335.2850              3335.3800
 Red. masses --      1.0153                 1.1185                 1.1185
 Frc consts  --      5.9974                 7.3311                 7.3313
 IR Inten    --      3.7512                 0.3410                 0.3370

 - Thermochemistry -
 -------------------
 Temperature   298.150 Kelvin.  Pressure   1.00000 Atm.
 Atom     1 has atomic number  6 and mass  12.00000

 Molecular mass:    75.99540 amu.
 Principal axes and moments of inertia in atomic units:
                           1         2         3
     Eigenvalues --    12.018211457.483551457.48587
           X            1.00000   0.00000  -0.00001
           Y           -0.00000   0.99999  -0.00405
           Z            0.00001   0.00405   0.99999
 This molecule is an asymmetric top.
 Rotational symmetry number  1.
 Rotational temperatures (Kelvin)      7.20689     0.05943     0.05943
 Rotational constants (GHZ):         150.16726     1.23826     1.23826
    3 imaginary frequencies ignored.
 Zero-point vibrational energy     111907.4 (Joules/Mol)
                                   26.74651 (Kcal/Mol)
 Warning -- explicit consideration of   3 degrees of freedom as
           vibrations may cause significant error
 Vibrational temperatures:    316.27   316.29   371.73  1417.61  1417.72
          (Kelvin)           1685.24  2056.77  2056.96  3126.80  4555.74
                             4798.73  4798.87

 Zero-point correction=                           0.042623 (Hartree/Particle)
 Thermal correction to Energy=                    0.047101
 Thermal correction to Enthalpy=                  0.048046
 Thermal correction to Gibbs Free Energy=         0.015014
 Sum of electronic and zero-point Energies=           -592.946989
 Sum of electronic and thermal Energies=              -592.942511
 Sum of electronic and thermal Enthalpies=            -592.941566
 Sum of electronic and thermal Free Energies=         -592.974598

                     E (Thermal)             CV                S
                      KCal/Mol        Cal/Mol-Kelvin    Cal/Mol-Kelvin
 Total                   29.557             12.541             69.520
 Electronic               0.000              0.000              0.000
 Translational            0.889              2.981             38.900
 Rotational               0.889              2.981             24.749
 Vibrational             27.779              6.579              5.871
 Vibration     1          0.647              1.811              1.961
 Vibration     2          0.647              1.811              1.960
 Vibration     3          0.667              1.749              1.673

 Normal termination of Gaussian 16 at Sun Oct 13 09:51:15 2024.
