 Gaussian 16, Revision B.01,
 Gaussian 16:  ES64L-G16RevB.01 20-Dec-2017

 ---------------------------------------------------------------------
 #p b3lyp 6-31++g(d,p) scf=verytight NoSymm freq=noraman int=ultrafine
 ---------------------------------------------------------------------

 ------------------------
 RxCoord=1.29969 DE=51.64
 ------------------------
 Symbolic Z-matrix:
 Charge = -1 Multiplicity = 1

                          Input orientation:
 ---------------------------------------------------------------------
 Center     Atomic      Atomic             Coordinates (Angstroms)
 Number     Number       Type             X           Y           Z
 ---------------------------------------------------------------------
      1          6           0       -0.166872    0.000007   -0.000162
      2         17           0       -2.172088   -0.000001    0.000044
      3          1           0        0.071232    0.002449   -1.053448
      4          1           0        0.071666    0.911010    0.528371
      5          1           0        0.071676   -0.913435    0.524142
      6          6           0        2.355541    0.000003   -0.000163
      7          7           0        3.533163   -0.000007    0.000235
 ---------------------------------------------------------------------

 SCF Done:  E(RB3LYP) =  -592.990006215     A.U. after   12 cycles

 Alpha  occ. eigenvalues -- -101.37898 -14.11058 -10.10432  -9.97677  -9.29427
 Alpha  occ. eigenvalues --   -7.05643  -7.04949  -7.04949  -0.66719  -0.66444
 Alpha  occ. eigenvalues --   -0.53933  -0.30188  -0.30184  -0.24074  -0.19170
 Alpha  occ. eigenvalues --   -0.15587  -0.15587  -0.11303  -0.11303  -0.08323
 Alpha virt. eigenvalues --    0.11261   0.12731   0.14837   0.14838   0.16372
 Alpha virt. eigenvalues --    0.19357   0.20609   0.20609   0.22179   0.22181
 Alpha virt. eigenvalues --    0.24810   0.24998   0.24998   0.26554   0.26560

 Mulliken charges:
               1
     1  C   -0.366908
     2  Cl  -0.358117
     3  H    0.210731
     4  H    0.210747
     5  H    0.210748
     6  C   -0.362497
     7  N   -0.544705
 Sum of Mulliken charges =  -1.00000

 Dipole moment (field-independent basis, Debye):
    X=             -7.3709    Y=              0.0000    Z=             -0.0005  Tot=              7.3709
 Quadrupole moment (field-independent basis, Debye-Ang):
   XX=            -88.0264   YY=            -35.3460   ZZ=            -35.3472
   XY=              0.0000   XZ=             -0.0010   YZ=              0.0000

  Exact polarizability: 110.403  -0.000  39.093   0.003  -0.000  39.093
 Approx polarizability: 138.861  -0.000  49.065   0.006   0.000  49.063

 ******    3 imaginary frequencies (negative Signs) ******

                      1                      2                      3
                      A                      A                      A
 Frequencies --    -73.8542               -73.8501               -68.3891
 Red. masses --      9.5717                 9.5707                10.0365
 Frc consts  --      0.0308                 0.0308                 0.0277
 IR Inten    --      0.5901                 0.6032               633.1463

                      4                      5                      6
                      A                      A                      A
 Frequencies --    214.4634               214.4770               269.6889
 Red. masses --      4.2400                 4.2398                18.4545
 Frc consts  --      0.1149                 0.1149                 0.7908
 IR Inten    --     13.2377                13.2385               141.2174

                      7                      8                      9
                      A                      A                      A
 Frequencies --    987.0889               987.1528              1182.1774
 Red. masses --      1.0729                 1.0729                 1.0608
 Frc consts  --      0.6159                 0.6160                 0.8734
 IR Inten    --      0.0233                 0.0232                65.4303

                     10                     11                     12
                      A                      A                      A
 Frequencies --   1431.5952              1431.7393              2172.5301
 Red. masses --      1.0816                 1.0816                12.7869
 Frc consts  --      1.3060                 1.3063                35.5589
 IR Inten    --      5.5268                 5.5206                 8.5519

                     13                     14                     15
                      A                      A                      A
 Frequencies --   3163.9623              3329.8727              3329.9614
 Red. masses --      1.0160                 1.1180                 1.1180
 Frc consts  --      5.9922                 7.3041                 7.3043
 IR Inten    --      4.1917                 0.2553                 0.2517

 - Thermochemistry -
 -------------------
 Temperature   298.150 Kelvin.  Pressure   1.00000 Atm.
 Atom     1 has atomic number  6 and mass  12.00000

 Molecular mass:    75.99540 amu.
 Principal axes and moments of inertia in atomic units:
                           1         2         3
     Eigenvalues --    11.977371458.404271458.40662
           X            1.00000   0.00000  -0.00001
           Y           -0.00000   1.00000  -0.00257
           Z            0.00001   0.00257   1.00000
 This molecule is an asymmetric top.
 Rotational symmetry number  1.
 Rotational temperatures (Kelvin)      7.23146     0.05939     0.05939
 Rotational constants (GHZ):         150.67926     1.23748     1.23747
    3 imaginary frequencies ignored.
 Zero-point vibrational energy     111938.8 (Joules/Mol)
                                   26.75402 (Kcal/Mol)
 Warning -- explicit consideration of   3 degrees of freedom as
           vibrations may cause significant error
 Vibrational temperatures:    308.57   308.58   388.02  1420.20  1420.29
          (Kelvin)           1700.89  2059.75  2059.95  3125.79  4552.24
                             4790.94  4791.07

 Zero-point correction=                           0.042635 (Hartree/Particle)
 Thermal correction to Energy=                    0.047113
 Thermal correction to Enthalpy=                  0.048057
 Thermal correction to Gibbs Free Energy=         0.015021
 Sum of electronic and zero-point Energies=           -592.947371
 Sum of electronic and thermal Energies=              -592.942893
 Sum of electronic and thermal Enthalpies=            -592.941949
 Sum of electronic and thermal Free Energies=         -592.974985

                     E (Thermal)             CV                S
                      KCal/Mol        Cal/Mol-Kelvin    Cal/Mol-Kelvin
 Total                   29.564             12.525             69.529
 Electronic               0.000              0.000              0.000
 Translational            0.889              2.981             38.900
 Rotational               0.889              2.981             24.747
 Vibrational             27.786              6.563              5.882
 Vibration     1          0.644              1.819              2.005
 Vibration     2          0.644              1.819              2.005
 Vibration     3          0.674              1.729              1.598

 Normal termination of Gaussian 16 at Sun Oct 13 09:51:20 2024.
