 Gaussian 16, Revision B.01,
 Gaussian 16:  ES64L-G16RevB.01 20-Dec-2017

 ---------------------------------------------------------------------
 #p b3lyp 6-31++g(d,p) scf=verytight NoSymm freq=noraman int=ultrafine
 ---------------------------------------------------------------------

 ------------------------
 RxCoord=1.39967 DE=51.20
 ------------------------
 Symbolic Z-matrix:
 Charge = -1 Multiplicity = 1

                          Input orientation:
 ---------------------------------------------------------------------
 Center     Atomic      Atomic             Coordinates (Angstroms)
 Number     Number       Type             X           Y           Z
 ---------------------------------------------------------------------
      1          6           0       -0.180422    0.000007   -0.000167
      2         17           0       -2.169830   -0.000001    0.000044
      3          1           0        0.067083    0.002443   -1.051648
      4          1           0        0.067523    0.909444    0.527454
      5          1           0        0.067537   -0.911862    0.523235
      6          6           0        2.359180    0.000003   -0.000158
      7          7           0        3.536912   -0.000007    0.000236
 ---------------------------------------------------------------------

 SCF Done:  E(RB3LYP) =  -592.990398410     A.U. after   12 cycles

 Alpha  occ. eigenvalues -- -101.38157 -14.10896 -10.10348  -9.97485  -9.29693
 Alpha  occ. eigenvalues --   -7.05917  -7.05210  -7.05210  -0.67053  -0.66317
 Alpha  occ. eigenvalues --   -0.53891  -0.30157  -0.30153  -0.24318  -0.19113
 Alpha  occ. eigenvalues --   -0.15762  -0.15761  -0.11147  -0.11147  -0.08179
 Alpha virt. eigenvalues --    0.11258   0.12775   0.14828   0.14828   0.16441
 Alpha virt. eigenvalues --    0.19425   0.20617   0.20617   0.22174   0.22176
 Alpha virt. eigenvalues --    0.24775   0.25015   0.25015   0.26627   0.26651

 Mulliken charges:
               1
     1  C   -0.370231
     2  Cl  -0.342773
     3  H    0.210719
     4  H    0.210737
     5  H    0.210739
     6  C   -0.376958
     7  N   -0.542232
 Sum of Mulliken charges =  -1.00000

 Dipole moment (field-independent basis, Debye):
    X=             -7.5936    Y=              0.0000    Z=             -0.0006  Tot=              7.5936
 Quadrupole moment (field-independent basis, Debye-Ang):
   XX=            -88.0483   YY=            -35.3549   ZZ=            -35.3561
   XY=              0.0000   XZ=             -0.0010   YZ=              0.0000

  Exact polarizability: 108.720  -0.000  39.135   0.003   0.000  39.134
 Approx polarizability: 136.348  -0.000  49.115   0.006   0.000  49.113

 ******    2 imaginary frequencies (negative Signs) ******

                      1                      2                      3
                      A                      A                      A
 Frequencies --    -78.4880               -78.4843                85.1469
 Red. masses --      9.6976                 9.6964                10.0764
 Frc consts  --      0.0352                 0.0352                 0.0430
 IR Inten    --      0.4417                 0.4420               517.3278

                      4                      5                      6
                      A                      A                      A
 Frequencies --    208.8770               208.8951               285.9055
 Red. masses --      4.1650                 4.1649                17.6071
 Frc consts  --      0.1071                 0.1071                 0.8480
 IR Inten    --     13.1438                13.1444               217.3522

                      7                      8                      9
                      A                      A                      A
 Frequencies --    989.1351               989.1907              1193.0596
 Red. masses --      1.0785                 1.0785                 1.0625
 Frc consts  --      0.6217                 0.6218                 0.8910
 IR Inten    --      0.0270                 0.0268                61.4894

                     10                     11                     12
                      A                      A                      A
 Frequencies --   1433.6798              1433.8242              2171.7647
 Red. masses --      1.0798                 1.0798                12.7900
 Frc consts  --      1.3077                 1.3079                35.5423
 IR Inten    --      5.6775                 5.6714                 9.2487

                     13                     14                     15
                      A                      A                      A
 Frequencies --   3161.5163              3324.3804              3324.4697
 Red. masses --      1.0167                 1.1175                 1.1175
 Frc consts  --      5.9871                 7.2767                 7.2769
 IR Inten    --      4.6629                 0.1816                 0.1785

 - Thermochemistry -
 -------------------
 Temperature   298.150 Kelvin.  Pressure   1.00000 Atm.
 Atom     1 has atomic number  6 and mass  12.00000

 Molecular mass:    75.99540 amu.
 Principal axes and moments of inertia in atomic units:
                           1         2         3
     Eigenvalues --    11.936231459.415541459.41784
           X            1.00000   0.00000  -0.00001
           Y           -0.00000   0.99999  -0.00398
           Z            0.00001   0.00398   0.99999
 This molecule is an asymmetric top.
 Rotational symmetry number  1.
 Rotational temperatures (Kelvin)      7.25639     0.05935     0.05935
 Rotational constants (GHZ):         151.19853     1.23662     1.23662
    2 imaginary frequencies ignored.
 Zero-point vibrational energy     112507.9 (Joules/Mol)
                                   26.89002 (Kcal/Mol)
 Warning -- explicit consideration of   4 degrees of freedom as
           vibrations may cause significant error
 Vibrational temperatures:    122.51   300.53   300.55   411.35  1423.14
          (Kelvin)           1423.22  1716.55  2062.75  2062.95  3124.68
                             4548.72  4783.04  4783.17

 Zero-point correction=                           0.042852 (Hartree/Particle)
 Thermal correction to Energy=                    0.048087
 Thermal correction to Enthalpy=                  0.049031
 Thermal correction to Gibbs Free Energy=         0.014210
 Sum of electronic and zero-point Energies=           -592.947546
 Sum of electronic and thermal Energies=              -592.942311
 Sum of electronic and thermal Enthalpies=            -592.941367
 Sum of electronic and thermal Free Energies=         -592.976189

                     E (Thermal)             CV                S
                      KCal/Mol        Cal/Mol-Kelvin    Cal/Mol-Kelvin
 Total                   30.175             14.458             73.288
 Electronic               0.000              0.000              0.000
 Translational            0.889              2.981             38.900
 Rotational               0.889              2.981             24.745
 Vibrational             28.398              8.496              9.643
 Vibration     1          0.601              1.959              3.769
 Vibration     2          0.642              1.827              2.053
 Vibration     3          0.642              1.827              2.053
 Vibration     4          0.684              1.700              1.498

 Normal termination of Gaussian 16 at Sun Oct 13 09:51:25 2024.
