 Gaussian 16, Revision B.01,
 Gaussian 16:  ES64L-G16RevB.01 20-Dec-2017

 ---------------------------------------------------------------------
 #p b3lyp 6-31++g(d,p) scf=verytight NoSymm freq=noraman int=ultrafine
 ---------------------------------------------------------------------

 ------------------------
 RxCoord=1.49965 DE=50.76
 ------------------------
 Symbolic Z-matrix:
 Charge = -1 Multiplicity = 1

                          Input orientation:
 ---------------------------------------------------------------------
 Center     Atomic      Atomic             Coordinates (Angstroms)
 Number     Number       Type             X           Y           Z
 ---------------------------------------------------------------------
      1          6           0       -0.193921    0.000007   -0.000171
      2         17           0       -2.167641   -0.000001    0.000045
      3          1           0        0.062657    0.002436   -1.049840
      4          1           0        0.063099    0.907870    0.526538
      5          1           0        0.063115   -0.910280    0.522331
      6          6           0        2.362919    0.000003   -0.000156
      7          7           0        3.540766   -0.000007    0.000238
 ---------------------------------------------------------------------

 SCF Done:  E(RB3LYP) =  -592.990781853     A.U. after   12 cycles

 Alpha  occ. eigenvalues -- -101.38408 -14.10740 -10.10263  -9.97301  -9.29952
 Alpha  occ. eigenvalues --   -7.06183  -7.05464  -7.05464  -0.67422  -0.66164
 Alpha  occ. eigenvalues --   -0.53848  -0.30132  -0.30128  -0.24577  -0.19046
 Alpha  occ. eigenvalues --   -0.15928  -0.15927  -0.10996  -0.10996  -0.08039
 Alpha virt. eigenvalues --    0.11253   0.12821   0.14818   0.14818   0.16514
 Alpha virt. eigenvalues --    0.19502   0.20621   0.20621   0.22172   0.22174
 Alpha virt. eigenvalues --    0.24741   0.25030   0.25031   0.26698   0.26740

 Mulliken charges:
               1
     1  C   -0.373880
     2  Cl  -0.327490
     3  H    0.210742
     4  H    0.210764
     5  H    0.210766
     6  C   -0.391207
     7  N   -0.539695
 Sum of Mulliken charges =  -1.00000

 Dipole moment (field-independent basis, Debye):
    X=             -7.8100    Y=              0.0000    Z=             -0.0006  Tot=              7.8100
 Quadrupole moment (field-independent basis, Debye-Ang):
   XX=            -88.0732   YY=            -35.3635   ZZ=            -35.3646
   XY=              0.0000   XZ=             -0.0011   YZ=              0.0000

  Exact polarizability: 106.995  -0.000  39.177   0.003   0.000  39.177
 Approx polarizability: 133.816  -0.000  49.164   0.006   0.000  49.162

 ******    2 imaginary frequencies (negative Signs) ******

                      1                      2                      3
                      A                      A                      A
 Frequencies --    -82.5471               -82.5436               128.3328
 Red. masses --      9.8125                 9.8111                10.3381
 Frc consts  --      0.0394                 0.0394                 0.1003
 IR Inten    --      0.3220                 0.3224               395.5967

                      4                      5                      6
                      A                      A                      A
 Frequencies --    203.0277               203.0494               307.6351
 Red. masses --      4.0947                 4.0946                16.2378
 Frc consts  --      0.0994                 0.0995                 0.9054
 IR Inten    --     13.0272                13.0276               299.5288

                      7                      8                      9
                      A                      A                      A
 Frequencies --    991.4160               991.4627              1203.9044
 Red. masses --      1.0842                 1.0842                 1.0643
 Frc consts  --      0.6279                 0.6279                 0.9088
 IR Inten    --      0.0318                 0.0316                57.4606

                     10                     11                     12
                      A                      A                      A
 Frequencies --   1435.7702              1435.9114              2170.9489
 Red. masses --      1.0780                 1.0780                12.7929
 Frc consts  --      1.3094                 1.3096                35.5238
 IR Inten    --      5.8305                 5.8247                 9.9370

                     13                     14                     15
                      A                      A                      A
 Frequencies --   3159.0722              3318.8392              3318.9246
 Red. masses --      1.0174                 1.1170                 1.1170
 Frc consts  --      5.9820                 7.2492                 7.2494
 IR Inten    --      5.1682                 0.1203                 0.1178

 - Thermochemistry -
 -------------------
 Temperature   298.150 Kelvin.  Pressure   1.00000 Atm.
 Atom     1 has atomic number  6 and mass  12.00000

 Molecular mass:    75.99540 amu.
 Principal axes and moments of inertia in atomic units:
                           1         2         3
     Eigenvalues --    11.895011460.540281460.54246
           X            1.00000   0.00000  -0.00001
           Y           -0.00000   0.99999  -0.00518
           Z            0.00001   0.00518   0.99999
 This molecule is an asymmetric top.
 Rotational symmetry number  1.
 Rotational temperatures (Kelvin)      7.28153     0.05930     0.05930
 Rotational constants (GHZ):         151.72249     1.23567     1.23567
    2 imaginary frequencies ignored.
 Zero-point vibrational energy     112857.5 (Joules/Mol)
                                   26.97358 (Kcal/Mol)
 Warning -- explicit consideration of   4 degrees of freedom as
           vibrations may cause significant error
 Vibrational temperatures:    184.64   292.11   292.14   442.62  1426.43
          (Kelvin)           1426.49  1732.15  2065.75  2065.96  3123.51
                             4545.20  4775.07  4775.19

 Zero-point correction=                           0.042985 (Hartree/Particle)
 Thermal correction to Energy=                    0.048128
 Thermal correction to Enthalpy=                  0.049072
 Thermal correction to Gibbs Free Energy=         0.014641
 Sum of electronic and zero-point Energies=           -592.947797
 Sum of electronic and thermal Energies=              -592.942654
 Sum of electronic and thermal Enthalpies=            -592.941710
 Sum of electronic and thermal Free Energies=         -592.976140

                     E (Thermal)             CV                S
                      KCal/Mol        Cal/Mol-Kelvin    Cal/Mol-Kelvin
 Total                   30.201             14.386             72.465
 Electronic               0.000              0.000              0.000
 Translational            0.889              2.981             38.900
 Rotational               0.889              2.981             24.743
 Vibrational             28.423              8.424              8.823
 Vibration     1          0.611              1.925              2.971
 Vibration     2          0.639              1.836              2.105
 Vibration     3          0.639              1.836              2.105
 Vibration     4          0.698              1.659              1.375

 Normal termination of Gaussian 16 at Sun Oct 13 09:51:25 2024.
