 Gaussian 16, Revision B.01,
 Gaussian 16:  ES64L-G16RevB.01 20-Dec-2017

 ---------------------------------------------------------------------
 #p b3lyp 6-31++g(d,p) scf=verytight NoSymm freq=noraman int=ultrafine
 ---------------------------------------------------------------------

 ------------------------
 RxCoord=1.59963 DE=50.33
 ------------------------
 Symbolic Z-matrix:
 Charge = -1 Multiplicity = 1

                          Input orientation:
 ---------------------------------------------------------------------
 Center     Atomic      Atomic             Coordinates (Angstroms)
 Number     Number       Type             X           Y           Z
 ---------------------------------------------------------------------
      1          6           0       -0.207358    0.000007   -0.000175
      2         17           0       -2.165547   -0.000001    0.000046
      3          1           0        0.057954    0.002429   -1.048034
      4          1           0        0.058391    0.906296    0.525629
      5          1           0        0.058411   -0.908698    0.521434
      6          6           0        2.366786    0.000003   -0.000155
      7          7           0        3.544754   -0.000007    0.000240
 ---------------------------------------------------------------------

 SCF Done:  E(RB3LYP) =  -592.991149751     A.U. after   12 cycles

 Alpha  occ. eigenvalues -- -101.38652 -14.10591 -10.10178  -9.97127  -9.30203
 Alpha  occ. eigenvalues --   -7.06442  -7.05710  -7.05710  -0.67795  -0.66014
 Alpha  occ. eigenvalues --   -0.53806  -0.30113  -0.30110  -0.24847  -0.18973
 Alpha  occ. eigenvalues --   -0.16084  -0.16083  -0.10852  -0.10852  -0.07903
 Alpha virt. eigenvalues --    0.11246   0.12866   0.14806   0.14806   0.16593
 Alpha virt. eigenvalues --    0.19588   0.20621   0.20622   0.22172   0.22174
 Alpha virt. eigenvalues --    0.24706   0.25044   0.25045   0.26767   0.26826

 Mulliken charges:
               1
     1  C   -0.377856
     2  Cl  -0.312329
     3  H    0.210802
     4  H    0.210825
     5  H    0.210828
     6  C   -0.405166
     7  N   -0.537104
 Sum of Mulliken charges =  -1.00000

 Dipole moment (field-independent basis, Debye):
    X=             -8.0200    Y=              0.0000    Z=             -0.0006  Tot=              8.0200
 Quadrupole moment (field-independent basis, Debye-Ang):
   XX=            -88.1022   YY=            -35.3716   ZZ=            -35.3727
   XY=              0.0000   XZ=             -0.0011   YZ=              0.0000

  Exact polarizability: 105.240  -0.000  39.220   0.003   0.000  39.220
 Approx polarizability: 131.286  -0.000  49.213   0.006   0.000  49.211

 ******    2 imaginary frequencies (negative Signs) ******

                      1                      2                      3
                      A                      A                      A
 Frequencies --    -86.0629               -86.0595               151.3437
 Red. masses --      9.9140                 9.9125                10.7422
 Frc consts  --      0.0433                 0.0433                 0.1450
 IR Inten    --      0.2278                 0.2282               292.1111

                      4                      5                      6
                      A                      A                      A
 Frequencies --    196.8847               196.9093               334.0761
 Red. masses --      4.0293                 4.0292                14.8017
 Frc consts  --      0.0920                 0.0920                 0.9733
 IR Inten    --     12.8922                12.8922               363.8472

                      7                      8                      9
                      A                      A                      A
 Frequencies --    993.9086               993.9473              1214.6665
 Red. masses --      1.0900                 1.0900                 1.0661
 Frc consts  --      0.6344                 0.6344                 0.9268
 IR Inten    --      0.0381                 0.0379                53.3991

                     10                     11                     12
                      A                      A                      A
 Frequencies --   1437.8616              1437.9943              2170.0754
 Red. masses --      1.0763                 1.0763                12.7958
 Frc consts  --      1.3110                 1.3113                35.5031
 IR Inten    --      5.9846                 5.9793                10.6125

                     13                     14                     15
                      A                      A                      A
 Frequencies --   3156.6403              3313.2700              3313.3534
 Red. masses --      1.0181                 1.1165                 1.1165
 Frc consts  --      5.9770                 7.2215                 7.2217
 IR Inten    --      5.7106                 0.0716                 0.0698

 - Thermochemistry -
 -------------------
 Temperature   298.150 Kelvin.  Pressure   1.00000 Atm.
 Atom     1 has atomic number  6 and mass  12.00000

 Molecular mass:    75.99540 amu.
 Principal axes and moments of inertia in atomic units:
                           1         2         3
     Eigenvalues --    11.853931461.808441461.81043
           X            1.00000   0.00000  -0.00001
           Y           -0.00000   0.99998  -0.00669
           Z            0.00001   0.00669   0.99998
 This molecule is an asymmetric top.
 Rotational symmetry number  1.
 Rotational temperatures (Kelvin)      7.30677     0.05925     0.05925
 Rotational constants (GHZ):         152.24830     1.23459     1.23459
    2 imaginary frequencies ignored.
 Zero-point vibrational energy     113112.5 (Joules/Mol)
                                   27.03453 (Kcal/Mol)
 Warning -- explicit consideration of   4 degrees of freedom as
           vibrations may cause significant error
 Vibrational temperatures:    217.75   283.27   283.31   480.66  1430.01
          (Kelvin)           1430.07  1747.63  2068.76  2068.95  3122.25
                             4541.70  4767.06  4767.18

 Zero-point correction=                           0.043082 (Hartree/Particle)
 Thermal correction to Energy=                    0.048171
 Thermal correction to Enthalpy=                  0.049115
 Thermal correction to Gibbs Free Energy=         0.014847
 Sum of electronic and zero-point Energies=           -592.948067
 Sum of electronic and thermal Energies=              -592.942979
 Sum of electronic and thermal Enthalpies=            -592.942035
 Sum of electronic and thermal Free Energies=         -592.976303

                     E (Thermal)             CV                S
                      KCal/Mol        Cal/Mol-Kelvin    Cal/Mol-Kelvin
 Total                   30.227             14.314             72.122
 Electronic               0.000              0.000              0.000
 Translational            0.889              2.981             38.900
 Rotational               0.889              2.981             24.741
 Vibrational             28.450              8.353              8.481
 Vibration     1          0.619              1.901              2.655
 Vibration     2          0.636              1.844              2.162
 Vibration     3          0.636              1.844              2.162
 Vibration     4          0.716              1.607              1.240

 Normal termination of Gaussian 16 at Sun Oct 13 09:51:26 2024.
