 Gaussian 16, Revision B.01,
 Gaussian 16:  ES64L-G16RevB.01 20-Dec-2017

 ---------------------------------------------------------------------
 #p b3lyp 6-31++g(d,p) scf=verytight NoSymm freq=noraman int=ultrafine
 ---------------------------------------------------------------------

 ------------------------
 RxCoord=1.69960 DE=49.91
 ------------------------
 Symbolic Z-matrix:
 Charge = -1 Multiplicity = 1

                          Input orientation:
 ---------------------------------------------------------------------
 Center     Atomic      Atomic             Coordinates (Angstroms)
 Number     Number       Type             X           Y           Z
 ---------------------------------------------------------------------
      1          6           0       -0.220718    0.000007   -0.000180
      2         17           0       -2.163580   -0.000001    0.000047
      3          1           0        0.052971    0.002422   -1.046241
      4          1           0        0.053398    0.904732    0.524732
      5          1           0        0.053420   -0.907126    0.520550
      6          6           0        2.370818    0.000004   -0.000156
      7          7           0        3.548911   -0.000008    0.000241
 ---------------------------------------------------------------------

 SCF Done:  E(RB3LYP) =  -592.991495439     A.U. after   12 cycles

 Alpha  occ. eigenvalues -- -101.38886 -14.10450 -10.10094  -9.96963  -9.30445
 Alpha  occ. eigenvalues --   -7.06691  -7.05948  -7.05948  -0.68170  -0.65869
 Alpha  occ. eigenvalues --   -0.53763  -0.30101  -0.30099  -0.25124  -0.18896
 Alpha  occ. eigenvalues --   -0.16230  -0.16229  -0.10715  -0.10715  -0.07774
 Alpha virt. eigenvalues --    0.11236   0.12909   0.14793   0.14793   0.16675
 Alpha virt. eigenvalues --    0.19685   0.20619   0.20619   0.22173   0.22175
 Alpha virt. eigenvalues --    0.24671   0.25057   0.25057   0.26833   0.26910

 Mulliken charges:
               1
     1  C   -0.382151
     2  Cl  -0.297365
     3  H    0.210895
     4  H    0.210921
     5  H    0.210923
     6  C   -0.418752
     7  N   -0.534471
 Sum of Mulliken charges =  -1.00000

 Dipole moment (field-independent basis, Debye):
    X=             -8.2233    Y=              0.0000    Z=             -0.0005  Tot=              8.2233
 Quadrupole moment (field-independent basis, Debye-Ang):
   XX=            -88.1365   YY=            -35.3792   ZZ=            -35.3801
   XY=              0.0000   XZ=             -0.0011   YZ=              0.0000

  Exact polarizability: 103.469  -0.000  39.263   0.003   0.000  39.263
 Approx polarizability: 128.778  -0.000  49.261   0.006   0.000  49.260

 ******    2 imaginary frequencies (negative Signs) ******

                      1                      2                      3
                      A                      A                      A
 Frequencies --    -89.1104               -89.1074               164.6178
 Red. masses --     10.0003                 9.9986                11.1569
 Frc consts  --      0.0468                 0.0468                 0.1781
 IR Inten    --      0.1557                 0.1560               217.3696

                      4                      5                      6
                      A                      A                      A
 Frequencies --    190.4106               190.4376               363.5342
 Red. masses --      3.9691                 3.9690                13.6224
 Frc consts  --      0.0848                 0.0848                 1.0607
 IR Inten    --     12.7436                12.7426               400.0703

                      7                      8                      9
                      A                      A                      A
 Frequencies --    996.5825               996.6168              1225.2985
 Red. masses --      1.0958                 1.0957                 1.0680
 Frc consts  --      0.6412                 0.6412                 0.9447
 IR Inten    --      0.0460                 0.0458                49.3602

                     10                     11                     12
                      A                      A                      A
 Frequencies --   1439.9482              1440.0650              2169.1576
 Red. masses --      1.0746                 1.0746                12.7985
 Frc consts  --      1.3127                 1.3130                35.4807
 IR Inten    --      6.1388                 6.1341                11.2715

                     13                     14                     15
                      A                      A                      A
 Frequencies --   3154.2333              3307.6974              3307.7911
 Red. masses --      1.0188                 1.1160                 1.1160
 Frc consts  --      5.9721                 7.1940                 7.1942
 IR Inten    --      6.2927                 0.0356                 0.0344

 - Thermochemistry -
 -------------------
 Temperature   298.150 Kelvin.  Pressure   1.00000 Atm.
 Atom     1 has atomic number  6 and mass  12.00000

 Molecular mass:    75.99540 amu.
 Principal axes and moments of inertia in atomic units:
                           1         2         3
     Eigenvalues --    11.813251463.257091463.25883
           X            1.00000   0.00000  -0.00001
           Y           -0.00000   0.99998  -0.00689
           Z            0.00001   0.00689   0.99998
 This molecule is an asymmetric top.
 Rotational symmetry number  1.
 Rotational temperatures (Kelvin)      7.33193     0.05919     0.05919
 Rotational constants (GHZ):         152.77268     1.23337     1.23337
    2 imaginary frequencies ignored.
 Zero-point vibrational energy     113324.6 (Joules/Mol)
                                   27.08523 (Kcal/Mol)
 Warning -- explicit consideration of   4 degrees of freedom as
           vibrations may cause significant error
 Vibrational temperatures:    236.85   273.96   274.00   523.04  1433.86
          (Kelvin)           1433.91  1762.93  2071.76  2071.93  3120.93
                             4538.24  4759.04  4759.17

 Zero-point correction=                           0.043163 (Hartree/Particle)
 Thermal correction to Energy=                    0.048215
 Thermal correction to Enthalpy=                  0.049159
 Thermal correction to Gibbs Free Energy=         0.014974
 Sum of electronic and zero-point Energies=           -592.948332
 Sum of electronic and thermal Energies=              -592.943280
 Sum of electronic and thermal Enthalpies=            -592.942336
 Sum of electronic and thermal Free Energies=         -592.976521

                     E (Thermal)             CV                S
                      KCal/Mol        Cal/Mol-Kelvin    Cal/Mol-Kelvin
 Total                   30.255             14.243             71.948
 Electronic               0.000              0.000              0.000
 Translational            0.889              2.981             38.900
 Rotational               0.889              2.981             24.740
 Vibrational             28.478              8.281              8.308
 Vibration     1          0.623              1.886              2.496
 Vibration     2          0.634              1.853              2.224
 Vibration     3          0.634              1.853              2.224
 Vibration     4          0.737              1.547              1.107

 Normal termination of Gaussian 16 at Sun Oct 13 09:51:26 2024.
