 Gaussian 16, Revision B.01,
 Gaussian 16:  ES64L-G16RevB.01 20-Dec-2017

 ---------------------------------------------------------------------
 #p b3lyp 6-31++g(d,p) scf=verytight NoSymm freq=noraman int=ultrafine
 ---------------------------------------------------------------------

 ------------------------
 RxCoord=1.79958 DE=49.52
 ------------------------
 Symbolic Z-matrix:
 Charge = -1 Multiplicity = 1

                          Input orientation:
 ---------------------------------------------------------------------
 Center     Atomic      Atomic             Coordinates (Angstroms)
 Number     Number       Type             X           Y           Z
 ---------------------------------------------------------------------
      1          6           0       -0.233974    0.000007   -0.000185
      2         17           0       -2.161781   -0.000001    0.000048
      3          1           0        0.047707    0.002414   -1.044474
      4          1           0        0.048119    0.903189    0.523853
      5          1           0        0.048143   -0.905576    0.519684
      6          6           0        2.375059    0.000004   -0.000158
      7          7           0        3.553283   -0.000008    0.000242
 ---------------------------------------------------------------------

 SCF Done:  E(RB3LYP) =  -592.991812532     A.U. after   12 cycles

 Alpha  occ. eigenvalues -- -101.39111 -14.10316 -10.10011  -9.96810  -9.30679
 Alpha  occ. eigenvalues --   -7.06931  -7.06177  -7.06177  -0.68544  -0.65731
 Alpha  occ. eigenvalues --   -0.53722  -0.30097  -0.30095  -0.25403  -0.18818
 Alpha  occ. eigenvalues --   -0.16366  -0.16365  -0.10584  -0.10584  -0.07650
 Alpha virt. eigenvalues --    0.11224   0.12950   0.14779   0.14779   0.16761
 Alpha virt. eigenvalues --    0.19792   0.20613   0.20614   0.22175   0.22177
 Alpha virt. eigenvalues --    0.24638   0.25068   0.25068   0.26896   0.26991

 Mulliken charges:
               1
     1  C   -0.386740
     2  Cl  -0.282695
     3  H    0.211020
     4  H    0.211047
     5  H    0.211050
     6  C   -0.431874
     7  N   -0.531807
 Sum of Mulliken charges =  -1.00000

 Dipole moment (field-independent basis, Debye):
    X=             -8.4195    Y=              0.0000    Z=             -0.0005  Tot=              8.4195
 Quadrupole moment (field-independent basis, Debye-Ang):
   XX=            -88.1779   YY=            -35.3863   ZZ=            -35.3870
   XY=              0.0000   XZ=             -0.0012   YZ=              0.0000

  Exact polarizability: 101.699  -0.000  39.306   0.003   0.000  39.306
 Approx polarizability: 126.316  -0.000  49.308   0.006   0.000  49.307

 ******    2 imaginary frequencies (negative Signs) ******

                      1                      2                      3
                      A                      A                      A
 Frequencies --    -91.6702               -91.6678               172.4078
 Red. masses --     10.0678                10.0659                11.5017
 Frc consts  --      0.0498                 0.0498                 0.2014
 IR Inten    --      0.1025                 0.1027               167.2420

                      4                      5                      6
                      A                      A                      A
 Frequencies --    183.5708               183.5992               394.4002
 Red. masses --      3.9145                 3.9143                12.7334
 Frc consts  --      0.0777                 0.0777                 1.1670
 IR Inten    --     12.5889                12.5832               412.6218

                      7                      8                      9
                      A                      A                      A
 Frequencies --    999.3986               999.4281              1235.7426
 Red. masses --      1.1015                 1.1015                 1.0700
 Frc consts  --      0.6482                 0.6482                 0.9627
 IR Inten    --      0.0558                 0.0556                45.3990

                     10                     11                     12
                      A                      A                      A
 Frequencies --   1442.0174              1442.1147              2168.1808
 Red. masses --      1.0729                 1.0729                12.8012
 Frc consts  --      1.3144                 1.3146                35.4562
 IR Inten    --      6.2914                 6.2876                11.9098

                     13                     14                     15
                      A                      A                      A
 Frequencies --   3151.8743              3302.1722              3302.2772
 Red. masses --      1.0195                 1.1155                 1.1155
 Frc consts  --      5.9673                 7.1667                 7.1670
 IR Inten    --      6.9158                 0.0122                 0.0116

 - Thermochemistry -
 -------------------
 Temperature   298.150 Kelvin.  Pressure   1.00000 Atm.
 Atom     1 has atomic number  6 and mass  12.00000

 Molecular mass:    75.99540 amu.
 Principal axes and moments of inertia in atomic units:
                           1         2         3
     Eigenvalues --    11.773241464.933291464.93474
           X            1.00000   0.00000  -0.00001
           Y           -0.00000   0.99996  -0.00868
           Z            0.00001   0.00868   0.99996
 This molecule is an asymmetric top.
 Rotational symmetry number  1.
 Rotational temperatures (Kelvin)      7.35685     0.05912     0.05912
 Rotational constants (GHZ):         153.29182     1.23196     1.23196
    2 imaginary frequencies ignored.
 Zero-point vibrational energy     113508.8 (Joules/Mol)
                                   27.12925 (Kcal/Mol)
 Warning -- explicit consideration of   4 degrees of freedom as
           vibrations may cause significant error
 Vibrational temperatures:    248.06   264.12   264.16   567.45  1437.91
          (Kelvin)           1437.95  1777.96  2074.74  2074.88  3119.53
                             4534.84  4751.09  4751.24

 Zero-point correction=                           0.043233 (Hartree/Particle)
 Thermal correction to Energy=                    0.048261
 Thermal correction to Enthalpy=                  0.049205
 Thermal correction to Gibbs Free Energy=         0.015058
 Sum of electronic and zero-point Energies=           -592.948579
 Sum of electronic and thermal Energies=              -592.943552
 Sum of electronic and thermal Enthalpies=            -592.942608
 Sum of electronic and thermal Free Energies=         -592.976754

                     E (Thermal)             CV                S
                      KCal/Mol        Cal/Mol-Kelvin    Cal/Mol-Kelvin
 Total                   30.284             14.173             71.868
 Electronic               0.000              0.000              0.000
 Translational            0.889              2.981             38.900
 Rotational               0.889              2.981             24.739
 Vibrational             28.507              8.211              8.230
 Vibration     1          0.626              1.876              2.409
 Vibration     2          0.631              1.862              2.292
 Vibration     3          0.631              1.862              2.291
 Vibration     4          0.761              1.482              0.983

 Normal termination of Gaussian 16 at Sun Oct 13 09:51:26 2024.
