 Gaussian 16, Revision B.01,
 Gaussian 16:  ES64L-G16RevB.01 20-Dec-2017

 ---------------------------------------------------------------------
 #p b3lyp 6-31++g(d,p) scf=verytight NoSymm freq=noraman int=ultrafine
 ---------------------------------------------------------------------

 ------------------------
 RxCoord=1.89956 DE=49.14
 ------------------------
 Symbolic Z-matrix:
 Charge = -1 Multiplicity = 1

                          Input orientation:
 ---------------------------------------------------------------------
 Center     Atomic      Atomic             Coordinates (Angstroms)
 Number     Number       Type             X           Y           Z
 ---------------------------------------------------------------------
      1          6           0       -0.247089    0.000006   -0.000189
      2         17           0       -2.160207   -0.000002    0.000049
      3          1           0        0.042170    0.002405   -1.042747
      4          1           0        0.042556    0.901681    0.523001
      5          1           0        0.042581   -0.904061    0.518845
      6          6           0        2.379569    0.000005   -0.000163
      7          7           0        3.557927   -0.000008    0.000244
 ---------------------------------------------------------------------

 SCF Done:  E(RB3LYP) =  -592.992095527     A.U. after   12 cycles

 Alpha  occ. eigenvalues -- -101.39326 -14.10191 -10.09931  -9.96667  -9.30903
 Alpha  occ. eigenvalues --   -7.07161  -7.06397  -7.06397  -0.68914  -0.65600
 Alpha  occ. eigenvalues --   -0.53682  -0.30102  -0.30100  -0.25682  -0.18740
 Alpha  occ. eigenvalues --   -0.16491  -0.16491  -0.10461  -0.10461  -0.07534
 Alpha virt. eigenvalues --    0.11210   0.12988   0.14764   0.14764   0.16846
 Alpha virt. eigenvalues --    0.19909   0.20605   0.20606   0.22177   0.22179
 Alpha virt. eigenvalues --    0.24604   0.25078   0.25078   0.26955   0.27068

 Mulliken charges:
               1
     1  C   -0.391588
     2  Cl  -0.268439
     3  H    0.211174
     4  H    0.211201
     5  H    0.211204
     6  C   -0.444427
     7  N   -0.529127
 Sum of Mulliken charges =  -1.00000

 Dipole moment (field-independent basis, Debye):
    X=             -8.6082    Y=              0.0000    Z=             -0.0005  Tot=              8.6082
 Quadrupole moment (field-independent basis, Debye-Ang):
   XX=            -88.2286   YY=            -35.3927   ZZ=            -35.3933
   XY=              0.0000   XZ=             -0.0012   YZ=              0.0000

  Exact polarizability:  99.950  -0.000  39.349   0.004   0.000  39.349
 Approx polarizability: 123.923  -0.000  49.353   0.007   0.000  49.352

 ******    2 imaginary frequencies (negative Signs) ******

                      1                      2                      3
                      A                      A                      A
 Frequencies --    -93.8081               -93.8063               176.3186
 Red. masses --     10.1135                10.1117                 3.8969
 Frc consts  --      0.0524                 0.0524                 0.0714
 IR Inten    --      0.0649                 0.0651                13.8952

                      4                      5                      6
                      A                      A                      A
 Frequencies --    176.3547               176.9221               425.4919
 Red. masses --      3.8654                11.4783                12.0619
 Frc consts  --      0.0708                 0.2117                 1.2866
 IR Inten    --     12.4194               132.4860               409.6009

                      7                      8                      9
                      A                      A                      A
 Frequencies --   1002.3042              1002.3288              1245.9330
 Red. masses --      1.1072                 1.1071                 1.0720
 Frc consts  --      0.6553                 0.6554                 0.9805
 IR Inten    --      0.0676                 0.0674                41.5686

                     10                     11                     12
                      A                      A                      A
 Frequencies --   1444.0561              1444.1327              2167.1653
 Red. masses --      1.0712                 1.0712                12.8038
 Frc consts  --      1.3161                 1.3163                35.4301
 IR Inten    --      6.4412                 6.4383                12.5233

                     13                     14                     15
                      A                      A                      A
 Frequencies --   3149.5819              3296.7444              3296.8519
 Red. masses --      1.0202                 1.1150                 1.1150
 Frc consts  --      5.9628                 7.1399                 7.1403
 IR Inten    --      7.5788                 0.0011                 0.0010

 - Thermochemistry -
 -------------------
 Temperature   298.150 Kelvin.  Pressure   1.00000 Atm.
 Atom     1 has atomic number  6 and mass  12.00000

 Molecular mass:    75.99540 amu.
 Principal axes and moments of inertia in atomic units:
                           1         2         3
     Eigenvalues --    11.734261466.899731466.90084
           X            1.00000   0.00000  -0.00001
           Y           -0.00000   0.99988  -0.01520
           Z            0.00001   0.01520   0.99988
 This molecule is an asymmetric top.
 Rotational symmetry number  1.
 Rotational temperatures (Kelvin)      7.38129     0.05905     0.05905
 Rotational constants (GHZ):         153.80106     1.23031     1.23031
    2 imaginary frequencies ignored.
 Zero-point vibrational energy     113670.3 (Joules/Mol)
                                   27.16785 (Kcal/Mol)
 Warning -- explicit consideration of   4 degrees of freedom as
           vibrations may cause significant error
 Vibrational temperatures:    253.68   253.74   254.55   612.19  1442.09
          (Kelvin)           1442.13  1792.62  2077.67  2077.78  3118.07
                             4531.55  4743.28  4743.43

 Zero-point correction=                           0.043295 (Hartree/Particle)
 Thermal correction to Energy=                    0.048308
 Thermal correction to Enthalpy=                  0.049252
 Thermal correction to Gibbs Free Energy=         0.015111
 Sum of electronic and zero-point Energies=           -592.948801
 Sum of electronic and thermal Energies=              -592.943788
 Sum of electronic and thermal Enthalpies=            -592.942844
 Sum of electronic and thermal Free Energies=         -592.976985

                     E (Thermal)             CV                S
                      KCal/Mol        Cal/Mol-Kelvin    Cal/Mol-Kelvin
 Total                   30.313             14.105             71.856
 Electronic               0.000              0.000              0.000
 Translational            0.889              2.981             38.900
 Rotational               0.889              2.981             24.738
 Vibrational             28.536              8.143              8.218
 Vibration     1          0.628              1.872              2.367
 Vibration     2          0.628              1.871              2.367
 Vibration     3          0.628              1.871              2.361
 Vibration     4          0.787              1.415              0.874

 Normal termination of Gaussian 16 at Sun Oct 13 09:51:32 2024.
