 Gaussian 16, Revision B.01,
 Gaussian 16:  ES64L-G16RevB.01 20-Dec-2017

 ---------------------------------------------------------------------
 #p b3lyp 6-31++g(d,p) scf=verytight NoSymm freq=noraman int=ultrafine
 ---------------------------------------------------------------------

 ------------------------
 RxCoord=1.99953 DE=48.80
 ------------------------
 Symbolic Z-matrix:
 Charge = -1 Multiplicity = 1

                          Input orientation:
 ---------------------------------------------------------------------
 Center     Atomic      Atomic             Coordinates (Angstroms)
 Number     Number       Type             X           Y           Z
 ---------------------------------------------------------------------
      1          6           0       -0.260000    0.000006   -0.000192
      2         17           0       -2.158935   -0.000002    0.000051
      3          1           0        0.036372    0.002395   -1.041079
      4          1           0        0.036720    0.900227    0.522187
      5          1           0        0.036744   -0.902600    0.518045
      6          6           0        2.384419    0.000006   -0.000171
      7          7           0        3.562916   -0.000008    0.000246
 ---------------------------------------------------------------------

 SCF Done:  E(RB3LYP) =  -592.992340365     A.U. after   12 cycles

 Alpha  occ. eigenvalues -- -101.39530 -14.10074 -10.09856  -9.96536  -9.31117
 Alpha  occ. eigenvalues --   -7.07380  -7.06606  -7.06606  -0.69277  -0.65477
 Alpha  occ. eigenvalues --   -0.53645  -0.30115  -0.30114  -0.25957  -0.18664
 Alpha  occ. eigenvalues --   -0.16607  -0.16606  -0.10345  -0.10345  -0.07425
 Alpha virt. eigenvalues --    0.11195   0.13021   0.14747   0.14748   0.16931
 Alpha virt. eigenvalues --    0.20032   0.20595   0.20595   0.22180   0.22181
 Alpha virt. eigenvalues --    0.24572   0.25086   0.25086   0.27010   0.27142

 Mulliken charges:
               1
     1  C   -0.396629
     2  Cl  -0.254756
     3  H    0.211354
     4  H    0.211379
     5  H    0.211382
     6  C   -0.456283
     7  N   -0.526447
 Sum of Mulliken charges =  -1.00000

 Dipole moment (field-independent basis, Debye):
    X=             -8.7889    Y=              0.0000    Z=             -0.0005  Tot=              8.7889
 Quadrupole moment (field-independent basis, Debye-Ang):
   XX=            -88.2914   YY=            -35.3985   ZZ=            -35.3989
   XY=              0.0000   XZ=             -0.0013   YZ=              0.0000

  Exact polarizability:  98.244  -0.000  39.392   0.004   0.000  39.392
 Approx polarizability: 121.628  -0.000  49.396   0.007   0.000  49.396

 ******    2 imaginary frequencies (negative Signs) ******

                      1                      2                      3
                      A                      A                      A
 Frequencies --    -95.4786               -95.4777               168.6607
 Red. masses --     10.1326                10.1309                 3.8231
 Frc consts  --      0.0544                 0.0544                 0.0641
 IR Inten    --      0.0400                 0.0401                12.2582

                      4                      5                      6
                      A                      A                      A
 Frequencies --    168.6887               179.3182               455.9256
 Red. masses --      3.8230                11.9388                11.5384
 Frc consts  --      0.0641                 0.2262                 1.4131
 IR Inten    --     12.2553               111.4242               397.4729

                      7                      8                      9
                      A                      A                      A
 Frequencies --   1005.2308              1005.2532              1255.7815
 Red. masses --      1.1127                 1.1127                 1.0741
 Frc consts  --      0.6625                 0.6625                 0.9980
 IR Inten    --      0.0816                 0.0814                37.9238

                     10                     11                     12
                      A                      A                      A
 Frequencies --   1446.0494              1446.1012              2166.0962
 Red. masses --      1.0696                 1.0696                12.8063
 Frc consts  --      1.3178                 1.3179                35.4021
 IR Inten    --      6.5861                 6.5845                13.1074

                     13                     14                     15
                      A                      A                      A
 Frequencies --   3147.3754              3291.4605              3291.5802
 Red. masses --      1.0209                 1.1145                 1.1145
 Frc consts  --      5.9585                 7.1139                 7.1143
 IR Inten    --      8.2768                 0.0018                 0.0019

 - Thermochemistry -
 -------------------
 Temperature   298.150 Kelvin.  Pressure   1.00000 Atm.
 Atom     1 has atomic number  6 and mass  12.00000

 Molecular mass:    75.99540 amu.
 Principal axes and moments of inertia in atomic units:
                           1         2         3
     Eigenvalues --    11.696771469.237331469.23806
           X            1.00000  -0.00000  -0.00001
           Y           -0.00000   0.99957  -0.02926
           Z            0.00001   0.02926   0.99957
 This molecule is an asymmetric top.
 Rotational symmetry number  1.
 Rotational temperatures (Kelvin)      7.40494     0.05895     0.05895
 Rotational constants (GHZ):         154.29396     1.22835     1.22835
    2 imaginary frequencies ignored.
 Zero-point vibrational energy     113809.9 (Joules/Mol)
                                   27.20121 (Kcal/Mol)
 Warning -- explicit consideration of   4 degrees of freedom as
           vibrations may cause significant error
 Vibrational temperatures:    242.67   242.71   258.00   655.98  1446.30
          (Kelvin)           1446.34  1806.79  2080.54  2080.62  3116.53
                             4528.37  4735.68  4735.85

 Zero-point correction=                           0.043348 (Hartree/Particle)
 Thermal correction to Energy=                    0.048354
 Thermal correction to Enthalpy=                  0.049298
 Thermal correction to Gibbs Free Energy=         0.015137
 Sum of electronic and zero-point Energies=           -592.948992
 Sum of electronic and thermal Energies=              -592.943986
 Sum of electronic and thermal Enthalpies=            -592.943042
 Sum of electronic and thermal Free Energies=         -592.977203

                     E (Thermal)             CV                S
                      KCal/Mol        Cal/Mol-Kelvin    Cal/Mol-Kelvin
 Total                   30.343             14.041             71.898
 Electronic               0.000              0.000              0.000
 Translational            0.889              2.981             38.900
 Rotational               0.889              2.981             24.738
 Vibrational             28.565              8.079              8.260
 Vibration     1          0.625              1.881              2.450
 Vibration     2          0.625              1.881              2.450
 Vibration     3          0.629              1.868              2.335
 Vibration     4          0.814              1.348              0.778

 Normal termination of Gaussian 16 at Sun Oct 13 09:51:41 2024.
