 Gaussian 16, Revision B.01,
 Gaussian 16:  ES64L-G16RevB.01 20-Dec-2017

 ---------------------------------------------------------------------
 #p b3lyp 6-31++g(d,p) scf=verytight NoSymm freq=noraman int=ultrafine
 ---------------------------------------------------------------------

 ------------------------
 RxCoord=2.09950 DE=48.48
 ------------------------
 Symbolic Z-matrix:
 Charge = -1 Multiplicity = 1

                          Input orientation:
 ---------------------------------------------------------------------
 Center     Atomic      Atomic             Coordinates (Angstroms)
 Number     Number       Type             X           Y           Z
 ---------------------------------------------------------------------
      1          6           0       -0.272607    0.000005   -0.000193
      2         17           0       -2.158068   -0.000002    0.000052
      3          1           0        0.030344    0.002384   -1.039493
      4          1           0        0.030641    0.898849    0.521425
      5          1           0        0.030663   -0.901215    0.517296
      6          6           0        2.389698    0.000008   -0.000183
      7          7           0        3.568338   -0.000008    0.000248
 ---------------------------------------------------------------------

 SCF Done:  E(RB3LYP) =  -592.992545654     A.U. after   12 cycles

 Alpha  occ. eigenvalues -- -101.39722 -14.09967 -10.09787  -9.96418  -9.31318
 Alpha  occ. eigenvalues --   -7.07586  -7.06803  -7.06803  -0.69630  -0.65364
 Alpha  occ. eigenvalues --   -0.53612  -0.30137  -0.30137  -0.26222  -0.18593
 Alpha  occ. eigenvalues --   -0.16712  -0.16711  -0.10238  -0.10238  -0.07325
 Alpha virt. eigenvalues --    0.11177   0.13048   0.14730   0.14730   0.17012
 Alpha virt. eigenvalues --    0.20159   0.20583   0.20583   0.22182   0.22183
 Alpha virt. eigenvalues --    0.24540   0.25092   0.25092   0.27060   0.27210

 Mulliken charges:
               1
     1  C   -0.401770
     2  Cl  -0.241865
     3  H    0.211555
     4  H    0.211575
     5  H    0.211578
     6  C   -0.467280
     7  N   -0.523794
 Sum of Mulliken charges =  -1.00000

 Dipole moment (field-independent basis, Debye):
    X=             -8.9605    Y=              0.0000    Z=             -0.0004  Tot=              8.9605
 Quadrupole moment (field-independent basis, Debye-Ang):
   XX=            -88.3699   YY=            -35.4036   ZZ=            -35.4038
   XY=              0.0000   XZ=             -0.0013   YZ=              0.0000

  Exact polarizability:  96.611  -0.000  39.434   0.004   0.000  39.435
 Approx polarizability: 119.464  -0.000  49.437   0.007   0.000  49.437

 ******    2 imaginary frequencies (negative Signs) ******

                      1                      2                      3
                      A                      A                      A
 Frequencies --    -96.6760               -96.6751               160.6003
 Red. masses --     10.1192                10.1206                 3.7877
 Frc consts  --      0.0557                 0.0557                 0.0576
 IR Inten    --      0.0247                 0.0246                12.0987

                      4                      5                      6
                      A                      A                      A
 Frequencies --    160.6262               180.2679               484.9641
 Red. masses --      3.7876                12.0567                11.1161
 Frc consts  --      0.0576                 0.2308                 1.5404
 IR Inten    --     12.0982                95.7449               380.5683

                      7                      8                      9
                      A                      A                      A
 Frequencies --   1008.0781              1008.1026              1265.1635
 Red. masses --      1.1180                 1.1180                 1.0762
 Frc consts  --      0.6694                 0.6694                 1.0149
 IR Inten    --      0.0975                 0.0975                34.5230

                     10                     11                     12
                      A                      A                      A
 Frequencies --   1447.9720              1447.9950              2164.9795
 Red. masses --      1.0681                 1.0681                12.8088
 Frc consts  --      1.3195                 1.3195                35.3724
 IR Inten    --      6.7245                 6.7242                13.6565

                     13                     14                     15
                      A                      A                      A
 Frequencies --   3145.2952              3286.4089              3286.5524
 Red. masses --      1.0216                 1.1140                 1.1140
 Frc consts  --      5.9545                 7.0891                 7.0896
 IR Inten    --      8.9981                 0.0131                 0.0133

 - Thermochemistry -
 -------------------
 Temperature   298.150 Kelvin.  Pressure   1.00000 Atm.
 Atom     1 has atomic number  6 and mass  12.00000

 Molecular mass:    75.99540 amu.
 Principal axes and moments of inertia in atomic units:
                           1         2         3
     Eigenvalues --    11.661331472.049261472.04961
           X            1.00000  -0.00000  -0.00001
           Y           -0.00000   0.99560  -0.09368
           Z            0.00001   0.09368   0.99560
 This molecule is an asymmetric top.
 Rotational symmetry number  1.
 Rotational temperatures (Kelvin)      7.42745     0.05884     0.05884
 Rotational constants (GHZ):         154.76291     1.22601     1.22601
    2 imaginary frequencies ignored.
 Zero-point vibrational energy     113926.4 (Joules/Mol)
                                   27.22906 (Kcal/Mol)
 Warning -- explicit consideration of   4 degrees of freedom as
           vibrations may cause significant error
 Vibrational temperatures:    231.07   231.11   259.37   697.76  1450.40
          (Kelvin)           1450.43  1820.29  2083.31  2083.34  3114.92
                             4525.38  4728.41  4728.62

 Zero-point correction=                           0.043392 (Hartree/Particle)
 Thermal correction to Energy=                    0.048400
 Thermal correction to Enthalpy=                  0.049344
 Thermal correction to Gibbs Free Energy=         0.015139
 Sum of electronic and zero-point Energies=           -592.949153
 Sum of electronic and thermal Energies=              -592.944146
 Sum of electronic and thermal Enthalpies=            -592.943202
 Sum of electronic and thermal Free Energies=         -592.977406

                     E (Thermal)             CV                S
                      KCal/Mol        Cal/Mol-Kelvin    Cal/Mol-Kelvin
 Total                   30.371             13.982             71.989
 Electronic               0.000              0.000              0.000
 Translational            0.889              2.981             38.900
 Rotational               0.889              2.981             24.739
 Vibrational             28.594              8.020              8.350
 Vibration     1          0.622              1.891              2.543
 Vibration     2          0.622              1.891              2.542
 Vibration     3          0.629              1.866              2.326
 Vibration     4          0.841              1.283              0.697

 Normal termination of Gaussian 16 at Sun Oct 13 09:51:37 2024.
