 Gaussian 16, Revision B.01,
 Gaussian 16:  ES64L-G16RevB.01 20-Dec-2017

 ---------------------------------------------------------------------
 #p b3lyp 6-31++g(d,p) scf=verytight NoSymm freq=noraman int=ultrafine
 ---------------------------------------------------------------------

 ------------------------
 RxCoord=2.19945 DE=48.21
 ------------------------
 Symbolic Z-matrix:
 Charge = -1 Multiplicity = 1

                          Input orientation:
 ---------------------------------------------------------------------
 Center     Atomic      Atomic             Coordinates (Angstroms)
 Number     Number       Type             X           Y           Z
 ---------------------------------------------------------------------
      1          6           0       -0.284750    0.000004   -0.000187
      2         17           0       -2.157737   -0.000002    0.000052
      3          1           0        0.024150    0.002374   -1.038021
      4          1           0        0.024377    0.897579    0.520732
      5          1           0        0.024395   -0.899941    0.516617
      6          6           0        2.395504    0.000010   -0.000201
      7          7           0        3.574289   -0.000008    0.000251
 ---------------------------------------------------------------------

 SCF Done:  E(RB3LYP) =  -592.992713989     A.U. after   12 cycles

 Alpha  occ. eigenvalues -- -101.39900 -14.09870 -10.09728  -9.96313  -9.31505
 Alpha  occ. eigenvalues --   -7.07778  -7.06987  -7.06987  -0.69964  -0.65260
 Alpha  occ. eigenvalues --   -0.53586  -0.30169  -0.30168  -0.26473  -0.18526
 Alpha  occ. eigenvalues --   -0.16807  -0.16807  -0.10140  -0.10140  -0.07235
 Alpha virt. eigenvalues --    0.11158   0.13068   0.14711   0.14711   0.17086
 Alpha virt. eigenvalues --    0.20283   0.20569   0.20569   0.22183   0.22183
 Alpha virt. eigenvalues --    0.24509   0.25096   0.25096   0.27103   0.27273

 Mulliken charges:
               1
     1  C   -0.406870
     2  Cl  -0.230056
     3  H    0.211772
     4  H    0.211783
     5  H    0.211786
     6  C   -0.477213
     7  N   -0.521202
 Sum of Mulliken charges =  -1.00000

 Dipole moment (field-independent basis, Debye):
    X=             -9.1217    Y=             -0.0000    Z=             -0.0003  Tot=              9.1217
 Quadrupole moment (field-independent basis, Debye-Ang):
   XX=            -88.4681   YY=            -35.4081   ZZ=            -35.4081
   XY=              0.0000   XZ=             -0.0014   YZ=              0.0000

  Exact polarizability:  95.087  -0.000  39.476   0.004   0.000  39.477
 Approx polarizability: 117.474  -0.000  49.476   0.007   0.000  49.476

 ******    2 imaginary frequencies (negative Signs) ******

                      1                      2                      3
                      A                      A                      A
 Frequencies --    -97.3868               -97.3847               152.2583
 Red. masses --     10.0731                10.0747                 3.7602
 Frc consts  --      0.0563                 0.0563                 0.0514
 IR Inten    --      0.0161                 0.0160                11.9547

                      4                      5                      6
                      A                      A                      A
 Frequencies --    152.2797               180.1303               511.8965
 Red. masses --      3.7601                12.1279                10.7675
 Frc consts  --      0.0514                 0.2319                 1.6624
 IR Inten    --     11.9545                84.5719               361.7541

                      7                      8                      9
                      A                      A                      A
 Frequencies --   1010.7269              1010.7514              1273.9113
 Red. masses --      1.1231                 1.1230                 1.0783
 Frc consts  --      0.6760                 0.6760                 1.0310
 IR Inten    --      0.1151                 0.1152                31.4338

                     10                     11                     12
                      A                      A                      A
 Frequencies --   1449.7850              1449.7882              2163.8283
 Red. masses --      1.0667                 1.0667                12.8111
 Frc consts  --      1.3210                 1.3210                35.3414
 IR Inten    --      6.8542                 6.8541                14.1633

                     13                     14                     15
                      A                      A                      A
 Frequencies --   3143.3720              3281.6989              3281.8537
 Red. masses --      1.0222                 1.1136                 1.1136
 Frc consts  --      5.9508                 7.0659                 7.0666
 IR Inten    --      9.7218                 0.0333                 0.0334

 - Thermochemistry -
 -------------------
 Temperature   298.150 Kelvin.  Pressure   1.00000 Atm.
 Atom     1 has atomic number  6 and mass  12.00000

 Molecular mass:    75.99540 amu.
 Principal axes and moments of inertia in atomic units:
                           1         2         3
     Eigenvalues --    11.628731475.457151475.45722
           X            1.00000  -0.00001  -0.00001
           Y            0.00000   0.76557  -0.64335
           Z            0.00001   0.64335   0.76557
 This molecule is an asymmetric top.
 Rotational symmetry number  1.
 Rotational temperatures (Kelvin)      7.44827     0.05870     0.05870
 Rotational constants (GHZ):         155.19680     1.22317     1.22317
    2 imaginary frequencies ignored.
 Zero-point vibrational energy     114017.8 (Joules/Mol)
                                   27.25090 (Kcal/Mol)
 Warning -- explicit consideration of   4 degrees of freedom as
           vibrations may cause significant error
 Vibrational temperatures:    219.07   219.10   259.17   736.50  1454.21
          (Kelvin)           1454.25  1832.87  2085.92  2085.92  3113.27
                             4522.61  4721.63  4721.86

 Zero-point correction=                           0.043427 (Hartree/Particle)
 Thermal correction to Energy=                    0.048442
 Thermal correction to Enthalpy=                  0.049386
 Thermal correction to Gibbs Free Energy=         0.015118
 Sum of electronic and zero-point Energies=           -592.949287
 Sum of electronic and thermal Energies=              -592.944272
 Sum of electronic and thermal Enthalpies=            -592.943328
 Sum of electronic and thermal Free Energies=         -592.977596

                     E (Thermal)             CV                S
                      KCal/Mol        Cal/Mol-Kelvin    Cal/Mol-Kelvin
 Total                   30.398             13.930             72.123
 Electronic               0.000              0.000              0.000
 Translational            0.889              2.981             38.900
 Rotational               0.889              2.981             24.741
 Vibrational             28.620              7.968              8.483
 Vibration     1          0.619              1.900              2.644
 Vibration     2          0.619              1.900              2.644
 Vibration     3          0.629              1.867              2.327
 Vibration     4          0.867              1.224              0.629

 Normal termination of Gaussian 16 at Sun Oct 13 09:51:38 2024.
