 Gaussian 16, Revision B.01,
 Gaussian 16:  ES64L-G16RevB.01 20-Dec-2017

 ---------------------------------------------------------------------
 #p b3lyp 6-31++g(d,p) scf=verytight NoSymm freq=noraman int=ultrafine
 ---------------------------------------------------------------------

 ------------------------
 RxCoord=2.29938 DE=47.95
 ------------------------
 Symbolic Z-matrix:
 Charge = -1 Multiplicity = 1

                          Input orientation:
 ---------------------------------------------------------------------
 Center     Atomic      Atomic             Coordinates (Angstroms)
 Number     Number       Type             X           Y           Z
 ---------------------------------------------------------------------
      1          6           0       -0.296195    0.000003   -0.000174
      2         17           0       -2.158089   -0.000002    0.000052
      3          1           0        0.017918    0.002365   -1.036704
      4          1           0        0.018037    0.896456    0.520130
      5          1           0        0.018049   -0.898816    0.516027
      6          6           0        2.401915    0.000012   -0.000228
      7          7           0        3.580845   -0.000008    0.000254
 ---------------------------------------------------------------------

 SCF Done:  E(RB3LYP) =  -592.992853190     A.U. after   12 cycles

 Alpha  occ. eigenvalues -- -101.40063 -14.09786 -10.09682  -9.96225  -9.31676
 Alpha  occ. eigenvalues --   -7.07953  -7.07155  -7.07155  -0.70271  -0.65169
 Alpha  occ. eigenvalues --   -0.53568  -0.30208  -0.30207  -0.26701  -0.18468
 Alpha  occ. eigenvalues --   -0.16892  -0.16892  -0.10055  -0.10055  -0.07157
 Alpha virt. eigenvalues --    0.11138   0.13080   0.14692   0.14692   0.17152
 Alpha virt. eigenvalues --    0.20396   0.20552   0.20552   0.22182   0.22183
 Alpha virt. eigenvalues --    0.24478   0.25097   0.25097   0.27138   0.27329

 Mulliken charges:
               1
     1  C   -0.411735
     2  Cl  -0.219688
     3  H    0.211999
     4  H    0.211994
     5  H    0.211995
     6  C   -0.485842
     7  N   -0.518722
 Sum of Mulliken charges =  -1.00000

 Dipole moment (field-independent basis, Debye):
    X=             -9.2703    Y=             -0.0000    Z=             -0.0003  Tot=              9.2703
 Quadrupole moment (field-independent basis, Debye-Ang):
   XX=            -88.5900   YY=            -35.4120   ZZ=            -35.4119
   XY=              0.0000   XZ=             -0.0014   YZ=              0.0000

  Exact polarizability:  93.716  -0.000  39.517   0.004   0.000  39.518
 Approx polarizability: 115.707  -0.000  49.511   0.008   0.000  49.511

 ******    2 imaginary frequencies (negative Signs) ******

                      1                      2                      3
                      A                      A                      A
 Frequencies --    -97.5724               -97.5696               143.8899
 Red. masses --      9.9928                 9.9940                 3.7408
 Frc consts  --      0.0561                 0.0561                 0.0456
 IR Inten    --      0.0121                 0.0120                11.8317

                      4                      5                      6
                      A                      A                      A
 Frequencies --    143.9032               179.1285               535.9573
 Red. masses --      3.7408                12.1650                10.4779
 Frc consts  --      0.0456                 0.2300                 1.7733
 IR Inten    --     11.8315                76.5061               343.0259

                      7                      8                      9
                      A                      A                      A
 Frequencies --   1013.0205              1013.0475              1281.8081
 Red. masses --      1.1276                 1.1276                 1.0804
 Frc consts  --      0.6818                 0.6818                 1.0459
 IR Inten    --      0.1334                 0.1336                28.7291

                     10                     11                     12
                      A                      A                      A
 Frequencies --   1451.4367              1451.4484              2162.6571
 Red. masses --      1.0655                 1.0655                12.8134
 Frc consts  --      1.3225                 1.3225                35.3094
 IR Inten    --      6.9734                 6.9708                14.6187

                     13                     14                     15
                      A                      A                      A
 Frequencies --   3141.6399              3277.4585              3277.5893
 Red. masses --      1.0228                 1.1132                 1.1132
 Frc consts  --      5.9475                 7.0451                 7.0457
 IR Inten    --     10.4147                 0.0597                 0.0596

 - Thermochemistry -
 -------------------
 Temperature   298.150 Kelvin.  Pressure   1.00000 Atm.
 Atom     1 has atomic number  6 and mass  12.00000

 Molecular mass:    75.99540 amu.
 Principal axes and moments of inertia in atomic units:
                           1         2         3
     Eigenvalues --    11.599911479.578131479.57838
           X            1.00000  -0.00001   0.00000
           Y            0.00000   0.12326   0.99237
           Z            0.00001   0.99237  -0.12326
 This molecule is an asymmetric top.
 Rotational symmetry number  1.
 Rotational temperatures (Kelvin)      7.46677     0.05854     0.05854
 Rotational constants (GHZ):         155.58232     1.21977     1.21977
    2 imaginary frequencies ignored.
 Zero-point vibrational energy     114081.8 (Joules/Mol)
                                   27.26620 (Kcal/Mol)
 Warning -- explicit consideration of   4 degrees of freedom as
           vibrations may cause significant error
 Vibrational temperatures:    207.03   207.04   257.73   771.12  1457.51
          (Kelvin)           1457.55  1844.24  2088.29  2088.31  3111.58
                             4520.12  4715.53  4715.72

 Zero-point correction=                           0.043451 (Hartree/Particle)
 Thermal correction to Energy=                    0.048479
 Thermal correction to Enthalpy=                  0.049424
 Thermal correction to Gibbs Free Energy=         0.015074
 Sum of electronic and zero-point Energies=           -592.949402
 Sum of electronic and thermal Energies=              -592.944374
 Sum of electronic and thermal Enthalpies=            -592.943430
 Sum of electronic and thermal Free Energies=         -592.977779

                     E (Thermal)             CV                S
                      KCal/Mol        Cal/Mol-Kelvin    Cal/Mol-Kelvin
 Total                   30.421             13.886             72.295
 Electronic               0.000              0.000              0.000
 Translational            0.889              2.981             38.900
 Rotational               0.889              2.981             24.744
 Vibrational             28.644              7.924              8.651
 Vibration     1          0.616              1.909              2.751
 Vibration     2          0.616              1.909              2.751
 Vibration     3          0.629              1.868              2.337
 Vibration     4          0.891              1.170              0.574

 Normal termination of Gaussian 16 at Sun Oct 13 09:51:38 2024.
