 Gaussian 16, Revision B.01,
 Gaussian 16:  ES64L-G16RevB.01 20-Dec-2017

 ---------------------------------------------------------------------
 #p b3lyp 6-31++g(d,p) scf=verytight NoSymm freq=noraman int=ultrafine
 ---------------------------------------------------------------------

 ------------------------
 RxCoord=2.39930 DE=47.73
 ------------------------
 Symbolic Z-matrix:
 Charge = -1 Multiplicity = 1

                          Input orientation:
 ---------------------------------------------------------------------
 Center     Atomic      Atomic             Coordinates (Angstroms)
 Number     Number       Type             X           Y           Z
 ---------------------------------------------------------------------
      1          6           0       -0.306655    0.000001   -0.000150
      2         17           0       -2.159252   -0.000002    0.000050
      3          1           0        0.011803    0.002358   -1.035580
      4          1           0        0.011788    0.895522    0.519647
      5          1           0        0.011797   -0.897882    0.515553
      6          6           0        2.408950    0.000015   -0.000264
      7          7           0        3.588023   -0.000008    0.000258
 ---------------------------------------------------------------------

 SCF Done:  E(RB3LYP) =  -592.992976103     A.U. after   12 cycles

 Alpha  occ. eigenvalues -- -101.40207 -14.09716 -10.09654  -9.96153  -9.31827
 Alpha  occ. eigenvalues --   -7.08108  -7.07303  -7.07303  -0.70539  -0.65092
 Alpha  occ. eigenvalues --   -0.53562  -0.30252  -0.30251  -0.26900  -0.18419
 Alpha  occ. eigenvalues --   -0.16969  -0.16968  -0.09982  -0.09982  -0.07093
 Alpha virt. eigenvalues --    0.11117   0.13082   0.14672   0.14672   0.17205
 Alpha virt. eigenvalues --    0.20489   0.20534   0.20534   0.22178   0.22180
 Alpha virt. eigenvalues --    0.24448   0.25094   0.25094   0.27163   0.27377

 Mulliken charges:
               1
     1  C   -0.416137
     2  Cl  -0.211133
     3  H    0.212227
     4  H    0.212197
     5  H    0.212197
     6  C   -0.492937
     7  N   -0.516413
 Sum of Mulliken charges =  -1.00000

 Dipole moment (field-independent basis, Debye):
    X=             -9.4039    Y=             -0.0000    Z=             -0.0001  Tot=              9.4039
 Quadrupole moment (field-independent basis, Debye-Ang):
   XX=            -88.7384   YY=            -35.4155   ZZ=            -35.4153
   XY=              0.0000   XZ=             -0.0015   YZ=              0.0000

  Exact polarizability:  92.544  -0.000  39.558   0.004   0.000  39.559
 Approx polarizability: 114.211  -0.000  49.544   0.008   0.000  49.544

 ******    2 imaginary frequencies (negative Signs) ******

                      1                      2                      3
                      A                      A                      A
 Frequencies --    -97.1863               -97.1821               135.8983
 Red. masses --      9.8832                 9.8839                 3.7297
 Frc consts  --      0.0550                 0.0550                 0.0406
 IR Inten    --      0.0111                 0.0111                11.7359

                      4                      5                      6
                      A                      A                      A
 Frequencies --    135.9062               177.4310               556.3480
 Red. masses --      3.7297                12.1776                10.2399
 Frc consts  --      0.0406                 0.2259                 1.8674
 IR Inten    --     11.7356                70.6884               325.8174

                      7                      8                      9
                      A                      A                      A
 Frequencies --   1014.7953              1014.8401              1288.6183
 Red. masses --      1.1316                 1.1316                 1.0823
 Frc consts  --      0.6866                 0.6867                 1.0589
 IR Inten    --      0.1512                 0.1516                26.4743

                     10                     11                     12
                      A                      A                      A
 Frequencies --   1452.8948              1452.9156              2161.4821
 Red. masses --      1.0644                 1.0644                12.8156
 Frc consts  --      1.3238                 1.3239                35.2771
 IR Inten    --      7.0772                 7.0731                15.0135

                     13                     14                     15
                      A                      A                      A
 Frequencies --   3140.1230              3273.7701              3273.9050
 Red. masses --      1.0232                 1.1128                 1.1128
 Frc consts  --      5.9445                 7.0271                 7.0277
 IR Inten    --     11.0345                 0.0888                 0.0882

 - Thermochemistry -
 -------------------
 Temperature   298.150 Kelvin.  Pressure   1.00000 Atm.
 Atom     1 has atomic number  6 and mass  12.00000

 Molecular mass:    75.99540 amu.
 Principal axes and moments of inertia in atomic units:
                           1         2         3
     Eigenvalues --    11.575901484.484841484.48520
           X            1.00000  -0.00001  -0.00000
           Y            0.00000   0.07620   0.99709
           Z            0.00001   0.99709  -0.07620
 This molecule is an asymmetric top.
 Rotational symmetry number  1.
 Rotational temperatures (Kelvin)      7.48226     0.05835     0.05835
 Rotational constants (GHZ):         155.90506     1.21574     1.21574
    2 imaginary frequencies ignored.
 Zero-point vibrational energy     114117.3 (Joules/Mol)
                                   27.27470 (Kcal/Mol)
 Warning -- explicit consideration of   4 degrees of freedom as
           vibrations may cause significant error
 Vibrational temperatures:    195.53   195.54   255.28   800.46  1460.06
          (Kelvin)           1460.13  1854.03  2090.39  2090.42  3109.89
                             4517.94  4710.23  4710.42

 Zero-point correction=                           0.043465 (Hartree/Particle)
 Thermal correction to Energy=                    0.048510
 Thermal correction to Enthalpy=                  0.049454
 Thermal correction to Gibbs Free Energy=         0.015012
 Sum of electronic and zero-point Energies=           -592.949511
 Sum of electronic and thermal Energies=              -592.944466
 Sum of electronic and thermal Enthalpies=            -592.943522
 Sum of electronic and thermal Free Energies=         -592.977964

                     E (Thermal)             CV                S
                      KCal/Mol        Cal/Mol-Kelvin    Cal/Mol-Kelvin
 Total                   30.441             13.852             72.490
 Electronic               0.000              0.000              0.000
 Translational            0.889              2.981             38.900
 Rotational               0.889              2.981             24.748
 Vibrational             28.663              7.890              8.842
 Vibration     1          0.614              1.917              2.861
 Vibration     2          0.614              1.917              2.861
 Vibration     3          0.628              1.870              2.355
 Vibration     4          0.912              1.126              0.531

 Normal termination of Gaussian 16 at Sun Oct 13 09:51:38 2024.
