 Gaussian 16, Revision B.01,
 Gaussian 16:  ES64L-G16RevB.01 20-Dec-2017

 ---------------------------------------------------------------------
 #p b3lyp 6-31++g(d,p) scf=verytight NoSymm freq=noraman int=ultrafine
 ---------------------------------------------------------------------

 ------------------------
 RxCoord=2.49921 DE=47.53
 ------------------------
 Symbolic Z-matrix:
 Charge = -1 Multiplicity = 1

                          Input orientation:
 ---------------------------------------------------------------------
 Center     Atomic      Atomic             Coordinates (Angstroms)
 Number     Number       Type             X           Y           Z
 ---------------------------------------------------------------------
      1          6           0       -0.315894   -0.000001   -0.000111
      2         17           0       -2.161261   -0.000002    0.000045
      3          1           0        0.006009    0.002354   -1.034681
      4          1           0        0.005845    0.894799    0.519309
      5          1           0        0.005852   -0.897160    0.515221
      6          6           0        2.416527    0.000017   -0.000315
      7          7           0        3.595738   -0.000008    0.000264
 ---------------------------------------------------------------------

 SCF Done:  E(RB3LYP) =  -592.993096831     A.U. after   12 cycles

 Alpha  occ. eigenvalues -- -101.40332 -14.09660 -10.09644  -9.96100  -9.31957
 Alpha  occ. eigenvalues --   -7.08241  -7.07431  -7.07431  -0.70762  -0.65029
 Alpha  occ. eigenvalues --   -0.53567  -0.30299  -0.30298  -0.27064  -0.18380
 Alpha  occ. eigenvalues --   -0.17037  -0.17036  -0.09923  -0.09923  -0.07044
 Alpha virt. eigenvalues --    0.11095   0.13074   0.14652   0.14653   0.17246
 Alpha virt. eigenvalues --    0.20515   0.20515   0.20554   0.22173   0.22175
 Alpha virt. eigenvalues --    0.24418   0.25088   0.25088   0.27179   0.27417

 Mulliken charges:
               1
     1  C   -0.419882
     2  Cl  -0.204594
     3  H    0.212444
     4  H    0.212385
     5  H    0.212384
     6  C   -0.498407
     7  N   -0.514330
 Sum of Mulliken charges =  -1.00000

 Dipole moment (field-independent basis, Debye):
    X=             -9.5208    Y=             -0.0000    Z=              0.0000  Tot=              9.5208
 Quadrupole moment (field-independent basis, Debye-Ang):
   XX=            -88.9119   YY=            -35.4189   ZZ=            -35.4185
   XY=             -0.0000   XZ=             -0.0016   YZ=              0.0000

  Exact polarizability:  91.599  -0.000  39.598   0.004   0.000  39.598
 Approx polarizability: 113.016  -0.000  49.573   0.009   0.000  49.573

 ******    2 imaginary frequencies (negative Signs) ******

                      1                      2                      3
                      A                      A                      A
 Frequencies --    -96.2309               -96.2258               128.7503
 Red. masses --      9.7573                 9.7573                 3.7255
 Frc consts  --      0.0532                 0.0532                 0.0364
 IR Inten    --      0.0122                 0.0122                11.6698

                      4                      5                      6
                      A                      A                      A
 Frequencies --    128.7537               175.2151               572.5358
 Red. masses --      3.7257                12.1734                10.0478
 Frc consts  --      0.0364                 0.2202                 1.9406
 IR Inten    --     11.6694                66.5279               310.9887

                      7                      8                      9
                      A                      A                      A
 Frequencies --   1015.9817              1016.0468              1294.2194
 Red. masses --      1.1350                 1.1350                 1.0841
 Frc consts  --      0.6903                 0.6903                 1.0699
 IR Inten    --      0.1672                 0.1677                24.6917

                     10                     11                     12
                      A                      A                      A
 Frequencies --   1454.1424              1454.1772              2160.3298
 Red. masses --      1.0636                 1.0636                12.8176
 Frc consts  --      1.3251                 1.3252                35.2451
 IR Inten    --      7.1645                 7.1589                15.3429

                     13                     14                     15
                      A                      A                      A
 Frequencies --   3138.7206              3270.5849              3270.7383
 Red. masses --      1.0236                 1.1126                 1.1126
 Frc consts  --      5.9415                 7.0117                 7.0124
 IR Inten    --     11.5416                 0.1172                 0.1159

 - Thermochemistry -
 -------------------
 Temperature   298.150 Kelvin.  Pressure   1.00000 Atm.
 Atom     1 has atomic number  6 and mass  12.00000

 Molecular mass:    75.99540 amu.
 Principal axes and moments of inertia in atomic units:
                           1         2         3
     Eigenvalues --    11.557381490.143051490.14354
           X            1.00000  -0.00000  -0.00000
           Y            0.00000   0.04267   0.99909
           Z            0.00000   0.99909  -0.04267
 This molecule is an asymmetric top.
 Rotational symmetry number  1.
 Rotational temperatures (Kelvin)      7.49425     0.05812     0.05812
 Rotational constants (GHZ):         156.15483     1.21112     1.21112
    2 imaginary frequencies ignored.
 Zero-point vibrational energy     114124.9 (Joules/Mol)
                                   27.27651 (Kcal/Mol)
 Warning -- explicit consideration of   4 degrees of freedom as
           vibrations may cause significant error
 Vibrational temperatures:    185.24   185.25   252.10   823.75  1461.77
          (Kelvin)           1461.86  1862.09  2092.19  2092.24  3108.23
                             4515.92  4705.64  4705.86

 Zero-point correction=                           0.043468 (Hartree/Particle)
 Thermal correction to Energy=                    0.048532
 Thermal correction to Enthalpy=                  0.049476
 Thermal correction to Gibbs Free Energy=         0.014937
 Sum of electronic and zero-point Energies=           -592.949629
 Sum of electronic and thermal Energies=              -592.944565
 Sum of electronic and thermal Enthalpies=            -592.943621
 Sum of electronic and thermal Free Energies=         -592.978160

                     E (Thermal)             CV                S
                      KCal/Mol        Cal/Mol-Kelvin    Cal/Mol-Kelvin
 Total                   30.454             13.827             72.694
 Electronic               0.000              0.000              0.000
 Translational            0.889              2.981             38.900
 Rotational               0.889              2.981             24.754
 Vibrational             28.677              7.866              9.040
 Vibration     1          0.611              1.924              2.965
 Vibration     2          0.611              1.924              2.965
 Vibration     3          0.627              1.873              2.379
 Vibration     4          0.929              1.091              0.499

 Normal termination of Gaussian 16 at Sun Oct 13 09:51:46 2024.
