 Gaussian 16, Revision B.01,
 Gaussian 16:  ES64L-G16RevB.01 20-Dec-2017

 ---------------------------------------------------------------------
 #p b3lyp 6-31++g(d,p) scf=verytight NoSymm freq=noraman int=ultrafine
 ---------------------------------------------------------------------

 ------------------------
 RxCoord=2.59913 DE=47.35
 ------------------------
 Symbolic Z-matrix:
 Charge = -1 Multiplicity = 1

                          Input orientation:
 ---------------------------------------------------------------------
 Center     Atomic      Atomic             Coordinates (Angstroms)
 Number     Number       Type             X           Y           Z
 ---------------------------------------------------------------------
      1          6           0       -0.323854   -0.000002   -0.000054
      2         17           0       -2.164024   -0.000002    0.000037
      3          1           0        0.000615    0.002352   -1.033998
      4          1           0        0.000296    0.894280    0.519111
      5          1           0        0.000305   -0.896644    0.515027
      6          6           0        2.424486    0.000020   -0.000381
      7          7           0        3.603826   -0.000009    0.000270
 ---------------------------------------------------------------------

 SCF Done:  E(RB3LYP) =  -592.993224652     A.U. after   12 cycles

 Alpha  occ. eigenvalues -- -101.40438 -14.09618 -10.09653  -9.96063  -9.32067
 Alpha  occ. eigenvalues --   -7.08353  -7.07539  -7.07539  -0.70937  -0.64979
 Alpha  occ. eigenvalues --   -0.53584  -0.30346  -0.30346  -0.27193  -0.18352
 Alpha  occ. eigenvalues --   -0.17099  -0.17098  -0.09876  -0.09876  -0.07008
 Alpha virt. eigenvalues --    0.11074   0.13058   0.14634   0.14634   0.17274
 Alpha virt. eigenvalues --    0.20494   0.20494   0.20589   0.22165   0.22168
 Alpha virt. eigenvalues --    0.24387   0.25078   0.25079   0.27184   0.27448

 Mulliken charges:
               1
     1  C   -0.422897
     2  Cl  -0.200006
     3  H    0.212647
     4  H    0.212554
     5  H    0.212552
     6  C   -0.502359
     7  N   -0.512491
 Sum of Mulliken charges =  -1.00000

 Dipole moment (field-independent basis, Debye):
    X=             -9.6212    Y=             -0.0000    Z=              0.0003  Tot=              9.6212
 Quadrupole moment (field-independent basis, Debye-Ang):
   XX=            -89.1062   YY=            -35.4221   ZZ=            -35.4216
   XY=             -0.0000   XZ=             -0.0016   YZ=              0.0000

  Exact polarizability:  90.875  -0.000  39.637   0.005  -0.000  39.637
 Approx polarizability: 112.106  -0.001  49.599   0.011  -0.000  49.599

 ******    2 imaginary frequencies (negative Signs) ******

                      1                      2                      3
                      A                      A                      A
 Frequencies --    -94.8109               -94.8051               122.7140
 Red. masses --      9.6289                 9.6280                 3.7261
 Frc consts  --      0.0510                 0.0510                 0.0331
 IR Inten    --      0.0148                 0.0148                11.6326

                      4                      5                      6
                      A                      A                      A
 Frequencies --    122.7152               172.6480               584.5598
 Red. masses --      3.7265                12.1588                 9.8967
 Frc consts  --      0.0331                 0.2135                 1.9925
 IR Inten    --     11.6319                63.5735               298.7807

                      7                      8                      9
                      A                      A                      A
 Frequencies --   1016.5648              1016.6552              1298.6023
 Red. masses --      1.1376                 1.1376                 1.0857
 Frc consts  --      0.6927                 0.6928                 1.0787
 IR Inten    --      0.1804                 0.1811                23.3475

                     10                     11                     12
                      A                      A                      A
 Frequencies --   1455.1637              1455.2154              2159.2344
 Red. masses --      1.0630                 1.0630                12.8195
 Frc consts  --      1.3262                 1.3263                35.2145
 IR Inten    --      7.2355                 7.2288                15.6101

                     13                     14                     15
                      A                      A                      A
 Frequencies --   3137.5078              3267.9919              3268.1795
 Red. masses --      1.0239                 1.1123                 1.1123
 Frc consts  --      5.9385                 6.9992                 7.0001
 IR Inten    --     11.9225                 0.1422                 0.1399

 - Thermochemistry -
 -------------------
 Temperature   298.150 Kelvin.  Pressure   1.00000 Atm.
 Atom     1 has atomic number  6 and mass  12.00000

 Molecular mass:    75.99540 amu.
 Principal axes and moments of inertia in atomic units:
                           1         2         3
     Eigenvalues --    11.544171496.409541496.41016
           X            1.00000   0.00000  -0.00000
           Y            0.00000   0.01536   0.99988
           Z           -0.00000   0.99988  -0.01536
 This molecule is an asymmetric top.
 Rotational symmetry number  1.
 Rotational temperatures (Kelvin)      7.50283     0.05788     0.05788
 Rotational constants (GHZ):         156.33360     1.20605     1.20605
    2 imaginary frequencies ignored.
 Zero-point vibrational energy     114110.3 (Joules/Mol)
                                   27.27302 (Kcal/Mol)
 Warning -- explicit consideration of   4 degrees of freedom as
           vibrations may cause significant error
 Vibrational temperatures:    176.56   176.56   248.40   841.05  1462.61
          (Kelvin)           1462.74  1868.40  2093.66  2093.73  3106.66
                             4514.17  4701.91  4702.18

 Zero-point correction=                           0.043462 (Hartree/Particle)
 Thermal correction to Energy=                    0.048545
 Thermal correction to Enthalpy=                  0.049489
 Thermal correction to Gibbs Free Energy=         0.014856
 Sum of electronic and zero-point Energies=           -592.949762
 Sum of electronic and thermal Energies=              -592.944680
 Sum of electronic and thermal Enthalpies=            -592.943735
 Sum of electronic and thermal Free Energies=         -592.978368

                     E (Thermal)             CV                S
                      KCal/Mol        Cal/Mol-Kelvin    Cal/Mol-Kelvin
 Total                   30.462             13.812             72.891
 Electronic               0.000              0.000              0.000
 Translational            0.889              2.981             38.900
 Rotational               0.889              2.981             24.762
 Vibrational             28.685              7.850              9.229
 Vibration     1          0.610              1.930              3.057
 Vibration     2          0.610              1.930              3.057
 Vibration     3          0.626              1.876              2.406
 Vibration     4          0.942              1.065              0.477

 Normal termination of Gaussian 16 at Sun Oct 13 09:51:49 2024.
