 Gaussian 16, Revision B.01,
 Gaussian 16:  ES64L-G16RevB.01 20-Dec-2017

 ---------------------------------------------------------------------
 #p b3lyp 6-31++g(d,p) scf=verytight NoSymm freq=noraman int=ultrafine
 ---------------------------------------------------------------------

 ------------------------
 RxCoord=2.69907 DE=47.18
 ------------------------
 Symbolic Z-matrix:
 Charge = -1 Multiplicity = 1

                          Input orientation:
 ---------------------------------------------------------------------
 Center     Atomic      Atomic             Coordinates (Angstroms)
 Number     Number       Type             X           Y           Z
 ---------------------------------------------------------------------
      1          6           0       -0.330709   -0.000004    0.000022
      2         17           0       -2.167364   -0.000002    0.000027
      3          1           0       -0.004322    0.002355   -1.033493
      4          1           0       -0.004786    0.893933    0.519036
      5          1           0       -0.004781   -0.896302    0.514949
      6          6           0        2.432662    0.000023   -0.000465
      7          7           0        3.612120   -0.000009    0.000278
 ---------------------------------------------------------------------

 SCF Done:  E(RB3LYP) =  -592.993361813     A.U. after   12 cycles

 Alpha  occ. eigenvalues -- -101.40529 -14.09586 -10.09676  -9.96038  -9.32160
 Alpha  occ. eigenvalues --   -7.08448  -7.07631  -7.07631  -0.71073  -0.64941
 Alpha  occ. eigenvalues --   -0.53609  -0.30392  -0.30391  -0.27294  -0.18331
 Alpha  occ. eigenvalues --   -0.17155  -0.17154  -0.09841  -0.09841  -0.06982
 Alpha virt. eigenvalues --    0.11054   0.13035   0.14616   0.14616   0.17293
 Alpha virt. eigenvalues --    0.20473   0.20474   0.20598   0.22155   0.22160
 Alpha virt. eigenvalues --    0.24357   0.25066   0.25067   0.27182   0.27472

 Mulliken charges:
               1
     1  C   -0.425261
     2  Cl  -0.196979
     3  H    0.212834
     4  H    0.212704
     5  H    0.212701
     6  C   -0.505128
     7  N   -0.510872
 Sum of Mulliken charges =  -1.00000

 Dipole moment (field-independent basis, Debye):
    X=             -9.7080    Y=             -0.0000    Z=              0.0005  Tot=              9.7080
 Quadrupole moment (field-independent basis, Debye-Ang):
   XX=            -89.3148   YY=            -35.4253   ZZ=            -35.4247
   XY=             -0.0000   XZ=             -0.0015   YZ=              0.0000

  Exact polarizability:  90.335  -0.000  39.674   0.006  -0.000  39.674
 Approx polarizability: 111.430  -0.001  49.623   0.013  -0.000  49.623

 ******    2 imaginary frequencies (negative Signs) ******

                      1                      2                      3
                      A                      A                      A
 Frequencies --    -93.0613               -93.0543               117.8250
 Red. masses --      9.5119                 9.5103                 3.7290
 Frc consts  --      0.0485                 0.0485                 0.0305
 IR Inten    --      0.0180                 0.0181                11.6179

                      4                      5                      6
                      A                      A                      A
 Frequencies --    117.8327               169.8897               593.1162
 Red. masses --      3.7297                12.1383                 9.7758
 Frc consts  --      0.0305                 0.2064                 2.0262
 IR Inten    --     11.6169                61.4360               288.8326

                      7                      8                      9
                      A                      A                      A
 Frequencies --   1016.6980              1016.8257              1302.0362
 Red. masses --      1.1397                 1.1397                 1.0871
 Frc consts  --      0.6941                 0.6943                 1.0858
 IR Inten    --      0.1912                 0.1920                22.3447

                     10                     11                     12
                      A                      A                      A
 Frequencies --   1456.0264              1456.0987              2158.2159
 Red. masses --      1.0625                 1.0626                12.8212
 Frc consts  --      1.3272                 1.3273                35.1860
 IR Inten    --      7.2930                 7.2858                15.8273

                     13                     14                     15
                      A                      A                      A
 Frequencies --   3136.2441              3265.6455              3265.8949
 Red. masses --      1.0241                 1.1122                 1.1122
 Frc consts  --      5.9350                 6.9881                 6.9893
 IR Inten    --     12.1847                 0.1635                 0.1600

 - Thermochemistry -
 -------------------
 Temperature   298.150 Kelvin.  Pressure   1.00000 Atm.
 Atom     1 has atomic number  6 and mass  12.00000

 Molecular mass:    75.99540 amu.
 Principal axes and moments of inertia in atomic units:
                           1         2         3
     Eigenvalues --    11.535401503.098751503.09948
           X            1.00000   0.00001  -0.00000
           Y            0.00000  -0.00221   1.00000
           Z           -0.00001   1.00000   0.00221
 This molecule is an asymmetric top.
 Rotational symmetry number  1.
 Rotational temperatures (Kelvin)      7.50853     0.05762     0.05762
 Rotational constants (GHZ):         156.45238     1.20068     1.20068
    2 imaginary frequencies ignored.
 Zero-point vibrational energy     114078.0 (Joules/Mol)
                                   27.26529 (Kcal/Mol)
 Warning -- explicit consideration of   4 degrees of freedom as
           vibrations may cause significant error
 Vibrational temperatures:    169.52   169.54   244.43   853.36  1462.80
          (Kelvin)           1462.99  1873.34  2094.90  2095.00  3105.19
                             4512.36  4698.54  4698.89

 Zero-point correction=                           0.043450 (Hartree/Particle)
 Thermal correction to Energy=                    0.048550
 Thermal correction to Enthalpy=                  0.049494
 Thermal correction to Gibbs Free Energy=         0.014776
 Sum of electronic and zero-point Energies=           -592.949912
 Sum of electronic and thermal Energies=              -592.944812
 Sum of electronic and thermal Enthalpies=            -592.943867
 Sum of electronic and thermal Free Energies=         -592.978585

                     E (Thermal)             CV                S
                      KCal/Mol        Cal/Mol-Kelvin    Cal/Mol-Kelvin
 Total                   30.466             13.803             73.070
 Electronic               0.000              0.000              0.000
 Translational            0.889              2.981             38.900
 Rotational               0.889              2.981             24.770
 Vibrational             28.688              7.842              9.401
 Vibration     1          0.608              1.935              3.136
 Vibration     2          0.608              1.935              3.136
 Vibration     3          0.625              1.880              2.437
 Vibration     4          0.951              1.046              0.462

 Normal termination of Gaussian 16 at Sun Oct 13 09:51:50 2024.
