 Gaussian 16, Revision B.01,
 Gaussian 16:  ES64L-G16RevB.01 20-Dec-2017

 ---------------------------------------------------------------------
 #p b3lyp 6-31++g(d,p) scf=verytight NoSymm freq=noraman int=ultrafine
 ---------------------------------------------------------------------

 ------------------------
 RxCoord=2.79903 DE=47.02
 ------------------------
 Symbolic Z-matrix:
 Charge = -1 Multiplicity = 1

                          Input orientation:
 ---------------------------------------------------------------------
 Center     Atomic      Atomic             Coordinates (Angstroms)
 Number     Number       Type             X           Y           Z
 ---------------------------------------------------------------------
      1          6           0       -0.336709   -0.000006    0.000122
      2         17           0       -2.171094   -0.000003    0.000014
      3          1           0       -0.009028    0.002361   -1.033099
      4          1           0       -0.009626    0.893704    0.519046
      5          1           0       -0.009621   -0.896082    0.514951
      6          6           0        2.440946    0.000026   -0.000573
      7          7           0        3.620513   -0.000009    0.000287
 ---------------------------------------------------------------------

 SCF Done:  E(RB3LYP) =  -592.993504692     A.U. after   12 cycles

 Alpha  occ. eigenvalues -- -101.40608 -14.09562 -10.09709  -9.96021  -9.32240
 Alpha  occ. eigenvalues --   -7.08530  -7.07709  -7.07709  -0.71178  -0.64911
 Alpha  occ. eigenvalues --   -0.53641  -0.30437  -0.30436  -0.27372  -0.18316
 Alpha  occ. eigenvalues --   -0.17208  -0.17207  -0.09812  -0.09812  -0.06964
 Alpha virt. eigenvalues --    0.11034   0.13007   0.14599   0.14599   0.17305
 Alpha virt. eigenvalues --    0.20452   0.20453   0.20588   0.22145   0.22151
 Alpha virt. eigenvalues --    0.24326   0.25052   0.25054   0.27175   0.27492

 Mulliken charges:
               1
     1  C   -0.427105
     2  Cl  -0.195149
     3  H    0.213012
     4  H    0.212842
     5  H    0.212839
     6  C   -0.507012
     7  N   -0.509426
 Sum of Mulliken charges =  -1.00000

 Dipole moment (field-independent basis, Debye):
    X=             -9.7844    Y=             -0.0000    Z=              0.0009  Tot=              9.7844
 Quadrupole moment (field-independent basis, Debye-Ang):
   XX=            -89.5339   YY=            -35.4283   ZZ=            -35.4276
   XY=             -0.0000   XZ=             -0.0012   YZ=             -0.0000

  Exact polarizability:  89.929  -0.000  39.710   0.007  -0.000  39.710
 Approx polarizability: 110.922  -0.001  49.645   0.016  -0.000  49.644

 ******    2 imaginary frequencies (negative Signs) ******

                      1                      2                      3
                      A                      A                      A
 Frequencies --    -91.1020               -91.0927               113.7947
 Red. masses --      9.4007                 9.3987                 3.7337
 Frc consts  --      0.0460                 0.0460                 0.0285
 IR Inten    --      0.0220                 0.0221                11.6218

                      4                      5                      6
                      A                      A                      A
 Frequencies --    113.8176               167.0102               599.0611
 Red. masses --      3.7346                12.1148                 9.6817
 Frc consts  --      0.0285                 0.1991                 2.0471
 IR Inten    --     11.6205                59.8530               280.6678

                      7                      8                      9
                      A                      A                      A
 Frequencies --   1016.3985              1016.5764              1304.6175
 Red. masses --      1.1414                 1.1413                 1.0882
 Frc consts  --      0.6947                 0.6949                 1.0913
 IR Inten    --      0.1993                 0.2003                21.6013

                     10                     11                     12
                      A                      A                      A
 Frequencies --   1456.6937              1456.7798              2157.2623
 Red. masses --      1.0622                 1.0622                12.8228
 Frc consts  --      1.3280                 1.3282                35.1592
 IR Inten    --      7.3402                 7.3334                16.0065

                     13                     14                     15
                      A                      A                      A
 Frequencies --   3135.4227              3264.0443              3264.3645
 Red. masses --      1.0243                 1.1121                 1.1121
 Frc consts  --      5.9328                 6.9805                 6.9820
 IR Inten    --     12.3650                 0.1801                 0.1752

 - Thermochemistry -
 -------------------
 Temperature   298.150 Kelvin.  Pressure   1.00000 Atm.
 Atom     1 has atomic number  6 and mass  12.00000

 Molecular mass:    75.99540 amu.
 Principal axes and moments of inertia in atomic units:
                           1         2         3
     Eigenvalues --    11.529631510.054621510.05536
           X            1.00000   0.00001  -0.00000
           Y            0.00000  -0.02031   0.99979
           Z           -0.00001   0.99979   0.02031
 This molecule is an asymmetric top.
 Rotational symmetry number  1.
 Rotational temperatures (Kelvin)      7.51229     0.05736     0.05736
 Rotational constants (GHZ):         156.53071     1.19515     1.19515
    2 imaginary frequencies ignored.
 Zero-point vibrational energy     114039.1 (Joules/Mol)
                                   27.25599 (Kcal/Mol)
 Warning -- explicit consideration of   4 degrees of freedom as
           vibrations may cause significant error
 Vibrational temperatures:    163.73   163.76   240.29   861.92  1462.37
          (Kelvin)           1462.63  1877.05  2095.86  2095.98  3103.82
                             4511.17  4696.23  4696.69

 Zero-point correction=                           0.043435 (Hartree/Particle)
 Thermal correction to Energy=                    0.048552
 Thermal correction to Enthalpy=                  0.049496
 Thermal correction to Gibbs Free Energy=         0.014700
 Sum of electronic and zero-point Energies=           -592.950070
 Sum of electronic and thermal Energies=              -592.944953
 Sum of electronic and thermal Enthalpies=            -592.944009
 Sum of electronic and thermal Free Energies=         -592.978805

                     E (Thermal)             CV                S
                      KCal/Mol        Cal/Mol-Kelvin    Cal/Mol-Kelvin
 Total                   30.467             13.800             73.235
 Electronic               0.000              0.000              0.000
 Translational            0.889              2.981             38.900
 Rotational               0.889              2.981             24.778
 Vibrational             28.689              7.839              9.557
 Vibration     1          0.607              1.938              3.203
 Vibration     2          0.607              1.938              3.203
 Vibration     3          0.624              1.883              2.469
 Vibration     4          0.957              1.034              0.451

 Normal termination of Gaussian 16 at Sun Oct 13 09:51:50 2024.
