 Gaussian 16, Revision B.01,
 Gaussian 16:  ES64L-G16RevB.01 20-Dec-2017

 ---------------------------------------------------------------------
 #p b3lyp 6-31++g(d,p) scf=verytight NoSymm freq=noraman int=ultrafine
 ---------------------------------------------------------------------

 ------------------------
 RxCoord=2.89900 DE=46.86
 ------------------------
 Symbolic Z-matrix:
 Charge = -1 Multiplicity = 1

                          Input orientation:
 ---------------------------------------------------------------------
 Center     Atomic      Atomic             Coordinates (Angstroms)
 Number     Number       Type             X           Y           Z
 ---------------------------------------------------------------------
      1          6           0       -0.342179   -0.000007    0.000245
      2         17           0       -2.175073   -0.000003    0.000000
      3          1           0       -0.013310    0.002365   -1.032785
      4          1           0       -0.014034    0.893565    0.519122
      5          1           0       -0.014035   -0.895954    0.515015
      6          6           0        2.449275    0.000029   -0.000705
      7          7           0        3.628942   -0.000010    0.000297
 ---------------------------------------------------------------------

 SCF Done:  E(RB3LYP) =  -592.993649851     A.U. after   12 cycles

 Alpha  occ. eigenvalues -- -101.40681 -14.09543 -10.09749  -9.96011  -9.32312
 Alpha  occ. eigenvalues --   -7.08604  -7.07781  -7.07781  -0.71264  -0.64886
 Alpha  occ. eigenvalues --   -0.53676  -0.30478  -0.30477  -0.27439  -0.18304
 Alpha  occ. eigenvalues --   -0.17258  -0.17258  -0.09789  -0.09789  -0.06950
 Alpha virt. eigenvalues --    0.11014   0.12976   0.14582   0.14582   0.17312
 Alpha virt. eigenvalues --    0.20431   0.20432   0.20565   0.22134   0.22141
 Alpha virt. eigenvalues --    0.24296   0.25037   0.25040   0.27164   0.27508

 Mulliken charges:
               1
     1  C   -0.428620
     2  Cl  -0.193949
     3  H    0.213179
     4  H    0.212967
     5  H    0.212962
     6  C   -0.508435
     7  N   -0.508104
 Sum of Mulliken charges =  -1.00000

 Dipole moment (field-independent basis, Debye):
    X=             -9.8544    Y=             -0.0000    Z=              0.0013  Tot=              9.8544
 Quadrupole moment (field-independent basis, Debye-Ang):
   XX=            -89.7571   YY=            -35.4316   ZZ=            -35.4308
   XY=             -0.0000   XZ=             -0.0009   YZ=             -0.0000

  Exact polarizability:  89.612  -0.000  39.747   0.009  -0.000  39.746
 Approx polarizability: 110.527  -0.001  49.667   0.019  -0.000  49.666

 ******    2 imaginary frequencies (negative Signs) ******

                      1                      2                      3
                      A                      A                      A
 Frequencies --    -89.0126               -89.0002               110.5481
 Red. masses --      9.3113                 9.3094                 3.7376
 Frc consts  --      0.0435                 0.0434                 0.0269
 IR Inten    --      0.0253                 0.0254                11.6331

                      4                      5                      6
                      A                      A                      A
 Frequencies --    110.5915               164.1253               603.3868
 Red. masses --      3.7387                12.0900                 9.5962
 Frc consts  --      0.0269                 0.1919                 2.0584
 IR Inten    --     11.6317                58.5759               273.5804

                      7                      8                      9
                      A                      A                      A
 Frequencies --   1016.0324              1016.2690              1306.9263
 Red. masses --      1.1427                 1.1427                 1.0894
 Frc consts  --      0.6950                 0.6953                 1.0963
 IR Inten    --      0.2069                 0.2080                20.9933

                     10                     11                     12
                      A                      A                      A
 Frequencies --   1457.3797              1457.4667              2156.3769
 Red. masses --      1.0620                 1.0620                12.8242
 Frc consts  --      1.3290                 1.3292                35.1343
 IR Inten    --      7.3811                 7.3752                16.1632

                     13                     14                     15
                      A                      A                      A
 Frequencies --   3134.0286              3261.9352              3262.3053
 Red. masses --      1.0244                 1.1119                 1.1120
 Frc consts  --      5.9282                 6.9708                 6.9725
 IR Inten    --     12.4705                 0.1961                 0.1899

 - Thermochemistry -
 -------------------
 Temperature   298.150 Kelvin.  Pressure   1.00000 Atm.
 Atom     1 has atomic number  6 and mass  12.00000

 Molecular mass:    75.99540 amu.
 Principal axes and moments of inertia in atomic units:
                           1         2         3
     Eigenvalues --    11.526111517.173721517.17438
           X            1.00000   0.00002  -0.00000
           Y            0.00000  -0.01818   0.99983
           Z           -0.00002   0.99983   0.01818
 This molecule is an asymmetric top.
 Rotational symmetry number  1.
 Rotational temperatures (Kelvin)      7.51459     0.05709     0.05709
 Rotational constants (GHZ):         156.57856     1.18954     1.18954
    2 imaginary frequencies ignored.
 Zero-point vibrational energy     113988.4 (Joules/Mol)
                                   27.24388 (Kcal/Mol)
 Warning -- explicit consideration of   4 degrees of freedom as
           vibrations may cause significant error
 Vibrational temperatures:    159.05   159.12   236.14   868.14  1461.84
          (Kelvin)           1462.18  1880.38  2096.84  2096.97  3102.55
                             4509.17  4693.20  4693.73

 Zero-point correction=                           0.043416 (Hartree/Particle)
 Thermal correction to Energy=                    0.048547
 Thermal correction to Enthalpy=                  0.049491
 Thermal correction to Gibbs Free Energy=         0.014625
 Sum of electronic and zero-point Energies=           -592.950234
 Sum of electronic and thermal Energies=              -592.945103
 Sum of electronic and thermal Enthalpies=            -592.944159
 Sum of electronic and thermal Free Energies=         -592.979024

                     E (Thermal)             CV                S
                      KCal/Mol        Cal/Mol-Kelvin    Cal/Mol-Kelvin
 Total                   30.464             13.799             73.381
 Electronic               0.000              0.000              0.000
 Translational            0.889              2.981             38.900
 Rotational               0.889              2.981             24.787
 Vibrational             28.686              7.837              9.694
 Vibration     1          0.606              1.941              3.259
 Vibration     2          0.606              1.941              3.259
 Vibration     3          0.623              1.887              2.502
 Vibration     4          0.962              1.025              0.444

 Normal termination of Gaussian 16 at Sun Oct 13 09:51:50 2024.
