 Gaussian 16, Revision B.01,
 Gaussian 16:  ES64L-G16RevB.01 20-Dec-2017

 ---------------------------------------------------------------------
 #p b3lyp 6-31++g(d,p) scf=verytight NoSymm freq=noraman int=ultrafine
 ---------------------------------------------------------------------

 ------------------------
 RxCoord=2.99898 DE=46.72
 ------------------------
 Symbolic Z-matrix:
 Charge = -1 Multiplicity = 1

                          Input orientation:
 ---------------------------------------------------------------------
 Center     Atomic      Atomic             Coordinates (Angstroms)
 Number     Number       Type             X           Y           Z
 ---------------------------------------------------------------------
      1          6           0       -0.347191   -0.000009    0.000387
      2         17           0       -2.179201   -0.000003   -0.000014
      3          1           0       -0.017856    0.002368   -1.032480
      4          1           0       -0.018711    0.893453    0.519227
      5          1           0       -0.018710   -0.895855    0.515110
      6          6           0        2.457625    0.000032   -0.000862
      7          7           0        3.637390   -0.000010    0.000309
 ---------------------------------------------------------------------

 SCF Done:  E(RB3LYP) =  -592.993791260     A.U. after   12 cycles

 Alpha  occ. eigenvalues -- -101.40745 -14.09527 -10.09792  -9.96004  -9.32376
 Alpha  occ. eigenvalues --   -7.08669  -7.07844  -7.07844  -0.71336  -0.64864
 Alpha  occ. eigenvalues --   -0.53717  -0.30526  -0.30526  -0.27491  -0.18295
 Alpha  occ. eigenvalues --   -0.17307  -0.17306  -0.09769  -0.09769  -0.06940
 Alpha virt. eigenvalues --    0.10994   0.12944   0.14565   0.14566   0.17316
 Alpha virt. eigenvalues --    0.20410   0.20411   0.20534   0.22122   0.22130
 Alpha virt. eigenvalues --    0.24265   0.25021   0.25024   0.27151   0.27524

 Mulliken charges:
               1
     1  C   -0.429825
     2  Cl  -0.193483
     3  H    0.213353
     4  H    0.213093
     5  H    0.213087
     6  C   -0.509351
     7  N   -0.506875
 Sum of Mulliken charges =  -1.00000

 Dipole moment (field-independent basis, Debye):
    X=             -9.9190    Y=             -0.0001    Z=              0.0018  Tot=              9.9190
 Quadrupole moment (field-independent basis, Debye-Ang):
   XX=            -89.9884   YY=            -35.4340   ZZ=            -35.4332
   XY=             -0.0000   XZ=             -0.0004   YZ=              0.0000

  Exact polarizability:  89.353  -0.000  39.780   0.010  -0.000  39.779
 Approx polarizability: 110.203  -0.001  49.683   0.024  -0.000  49.682

 ******    2 imaginary frequencies (negative Signs) ******

                      1                      2                      3
                      A                      A                      A
 Frequencies --    -86.8486               -86.8314               107.4878
 Red. masses --      9.1984                 9.1971                 3.7455
 Frc consts  --      0.0409                 0.0409                 0.0255
 IR Inten    --      0.0316                 0.0316                11.6591

                      4                      5                      6
                      A                      A                      A
 Frequencies --    107.5596               161.1481               606.3670
 Red. masses --      3.7467                12.0650                 9.5371
 Frc consts  --      0.0255                 0.1846                 2.0660
 IR Inten    --     11.6575                57.5833               267.5632

                      7                      8                      9
                      A                      A                      A
 Frequencies --   1015.1563              1015.4662              1308.3923
 Red. masses --      1.1439                 1.1439                 1.0903
 Frc consts  --      0.6946                 0.6950                 1.0997
 IR Inten    --      0.2115                 0.2126                20.5472

                     10                     11                     12
                      A                      A                      A
 Frequencies --   1457.7417              1457.8256              2155.5074
 Red. masses --      1.0618                 1.0619                12.8256
 Frc consts  --      1.3294                 1.3296                35.1097
 IR Inten    --      7.4166                 7.4122                16.2982

                     13                     14                     15
                      A                      A                      A
 Frequencies --   3134.2305              3261.7862              3262.2154
 Red. masses --      1.0245                 1.1119                 1.1119
 Frc consts  --      5.9294                 6.9698                 6.9718
 IR Inten    --     12.5645                 0.2051                 0.1975

 - Thermochemistry -
 -------------------
 Temperature   298.150 Kelvin.  Pressure   1.00000 Atm.
 Atom     1 has atomic number  6 and mass  12.00000

 Molecular mass:    75.99540 amu.
 Principal axes and moments of inertia in atomic units:
                           1         2         3
     Eigenvalues --    11.523241524.392071524.39258
           X            1.00000   0.00003  -0.00000
           Y            0.00000  -0.03001   0.99955
           Z           -0.00003   0.99955   0.03001
 This molecule is an asymmetric top.
 Rotational symmetry number  1.
 Rotational temperatures (Kelvin)      7.51646     0.05682     0.05682
 Rotational constants (GHZ):         156.61752     1.18391     1.18391
    2 imaginary frequencies ignored.
 Zero-point vibrational energy     113949.6 (Joules/Mol)
                                   27.23461 (Kcal/Mol)
 Warning -- explicit consideration of   4 degrees of freedom as
           vibrations may cause significant error
 Vibrational temperatures:    154.65   154.75   231.86   872.43  1460.58
          (Kelvin)           1461.03  1882.48  2097.37  2097.49  3101.29
                             4509.46  4692.98  4693.60

 Zero-point correction=                           0.043401 (Hartree/Particle)
 Thermal correction to Energy=                    0.048547
 Thermal correction to Enthalpy=                  0.049491
 Thermal correction to Gibbs Free Energy=         0.014556
 Sum of electronic and zero-point Energies=           -592.950390
 Sum of electronic and thermal Energies=              -592.945244
 Sum of electronic and thermal Enthalpies=            -592.944300
 Sum of electronic and thermal Free Energies=         -592.979236

                     E (Thermal)             CV                S
                      KCal/Mol        Cal/Mol-Kelvin    Cal/Mol-Kelvin
 Total                   30.464             13.802             73.529
 Electronic               0.000              0.000              0.000
 Translational            0.889              2.981             38.900
 Rotational               0.889              2.981             24.797
 Vibrational             28.686              7.841              9.832
 Vibration     1          0.606              1.943              3.314
 Vibration     2          0.606              1.943              3.312
 Vibration     3          0.622              1.890              2.536
 Vibration     4          0.965              1.018              0.439

 Normal termination of Gaussian 16 at Sun Oct 13 09:51:56 2024.
