 Gaussian 16, Revision B.01,
 Gaussian 16:  ES64L-G16RevB.01 20-Dec-2017

 ---------------------------------------------------------------------
 #p b3lyp 6-31++g(d,p) scf=verytight NoSymm freq=noraman int=ultrafine
 ---------------------------------------------------------------------

 ------------------------
 RxCoord=3.09896 DE=46.57
 ------------------------
 Symbolic Z-matrix:
 Charge = -1 Multiplicity = 1

                          Input orientation:
 ---------------------------------------------------------------------
 Center     Atomic      Atomic             Coordinates (Angstroms)
 Number     Number       Type             X           Y           Z
 ---------------------------------------------------------------------
      1          6           0       -0.352176   -0.000011    0.000546
      2         17           0       -2.183424   -0.000003   -0.000028
      3          1           0       -0.021409    0.002372   -1.032237
      4          1           0       -0.022383    0.893411    0.519383
      5          1           0       -0.022392   -0.895820    0.515257
      6          6           0        2.465982    0.000035   -0.001041
      7          7           0        3.645834   -0.000010    0.000321
 ---------------------------------------------------------------------

 SCF Done:  E(RB3LYP) =  -592.993931103     A.U. after   12 cycles

 Alpha  occ. eigenvalues -- -101.40813 -14.09512 -10.09840  -9.95998  -9.32443
 Alpha  occ. eigenvalues --   -7.08738  -7.07911  -7.07911  -0.71402  -0.64845
 Alpha  occ. eigenvalues --   -0.53752  -0.30556  -0.30556  -0.27550  -0.18287
 Alpha  occ. eigenvalues --   -0.17355  -0.17355  -0.09750  -0.09750  -0.06930
 Alpha virt. eigenvalues --    0.10975   0.12908   0.14550   0.14551   0.17318
 Alpha virt. eigenvalues --    0.20389   0.20389   0.20499   0.22111   0.22121
 Alpha virt. eigenvalues --    0.24235   0.25004   0.25009   0.27135   0.27535

 Mulliken charges:
               1
     1  C   -0.431026
     2  Cl  -0.192722
     3  H    0.213507
     4  H    0.213197
     5  H    0.213190
     6  C   -0.510445
     7  N   -0.505701
 Sum of Mulliken charges =  -1.00000

 Dipole moment (field-independent basis, Debye):
    X=             -9.9827    Y=             -0.0001    Z=              0.0023  Tot=              9.9827
 Quadrupole moment (field-independent basis, Debye-Ang):
   XX=            -90.2135   YY=            -35.4382   ZZ=            -35.4374
   XY=             -0.0000   XZ=              0.0001   YZ=             -0.0000

  Exact polarizability:  89.129  -0.000  39.817   0.012  -0.000  39.816
 Approx polarizability: 109.927  -0.001  49.708   0.029  -0.000  49.707

 ******    2 imaginary frequencies (negative Signs) ******

                      1                      2                      3
                      A                      A                      A
 Frequencies --    -84.6163               -84.5946               105.3130
 Red. masses --      9.1528                 9.1519                 3.7461
 Frc consts  --      0.0386                 0.0386                 0.0245
 IR Inten    --      0.0321                 0.0321                11.6730

                      4                      5                      6
                      A                      A                      A
 Frequencies --    105.4092               158.3455               609.1638
 Red. masses --      3.7475                12.0401                 9.4515
 Frc consts  --      0.0245                 0.1779                 2.0664
 IR Inten    --     11.6713                56.5847               261.5212

                      7                      8                      9
                      A                      A                      A
 Frequencies --   1014.9831              1015.3546              1310.7464
 Red. masses --      1.1449                 1.1448                 1.0914
 Frc consts  --      0.6949                 0.6954                 1.1048
 IR Inten    --      0.2205                 0.2217                20.0396

                     10                     11                     12
                      A                      A                      A
 Frequencies --   1458.5946              1458.6694              2154.7247
 Red. masses --      1.0617                 1.0617                12.8268
 Frc consts  --      1.3308                 1.3310                35.0875
 IR Inten    --      7.4520                 7.4492                16.4331

                     13                     14                     15
                      A                      A                      A
 Frequencies --   3131.3300              3258.0608              3258.5262
 Red. masses --      1.0246                 1.1118                 1.1118
 Frc consts  --      5.9192                 6.9533                 6.9554
 IR Inten    --     12.5708                 0.2243                 0.2150

 - Thermochemistry -
 -------------------
 Temperature   298.150 Kelvin.  Pressure   1.00000 Atm.
 Atom     1 has atomic number  6 and mass  12.00000

 Molecular mass:    75.99540 amu.
 Principal axes and moments of inertia in atomic units:
                           1         2         3
     Eigenvalues --    11.522091531.681781531.68213
           X            1.00000   0.00004  -0.00000
           Y            0.00000  -0.04150   0.99914
           Z           -0.00004   0.99914   0.04150
 This molecule is an asymmetric top.
 Rotational symmetry number  1.
 Rotational temperatures (Kelvin)      7.51721     0.05655     0.05655
 Rotational constants (GHZ):         156.63319     1.17827     1.17827
    2 imaginary frequencies ignored.
 Zero-point vibrational energy     113879.8 (Joules/Mol)
                                   27.21793 (Kcal/Mol)
 Warning -- explicit consideration of   4 degrees of freedom as
           vibrations may cause significant error
 Vibrational temperatures:    151.52   151.66   227.82   876.45  1460.33
          (Kelvin)           1460.87  1885.87  2098.59  2098.70  3100.17
                             4505.29  4687.62  4688.29

 Zero-point correction=                           0.043375 (Hartree/Particle)
 Thermal correction to Energy=                    0.048532
 Thermal correction to Enthalpy=                  0.049476
 Thermal correction to Gibbs Free Energy=         0.014485
 Sum of electronic and zero-point Energies=           -592.950557
 Sum of electronic and thermal Energies=              -592.945399
 Sum of electronic and thermal Enthalpies=            -592.944455
 Sum of electronic and thermal Free Energies=         -592.979446

                     E (Thermal)             CV                S
                      KCal/Mol        Cal/Mol-Kelvin    Cal/Mol-Kelvin
 Total                   30.454             13.802             73.645
 Electronic               0.000              0.000              0.000
 Translational            0.889              2.981             38.900
 Rotational               0.889              2.981             24.806
 Vibrational             28.677              7.840              9.940
 Vibration     1          0.605              1.945              3.354
 Vibration     2          0.605              1.945              3.352
 Vibration     3          0.621              1.893              2.569
 Vibration     4          0.968              1.012              0.434

 Normal termination of Gaussian 16 at Sun Oct 13 09:52:00 2024.
