 Gaussian 16, Revision B.01,
 Gaussian 16:  ES64L-G16RevB.01 20-Dec-2017

 ---------------------------------------------------------------------
 #p b3lyp 6-31++g(d,p) scf=verytight NoSymm freq=noraman int=ultrafine
 ---------------------------------------------------------------------

 ------------------------
 RxCoord=3.19893 DE=46.44
 ------------------------
 Symbolic Z-matrix:
 Charge = -1 Multiplicity = 1

                          Input orientation:
 ---------------------------------------------------------------------
 Center     Atomic      Atomic             Coordinates (Angstroms)
 Number     Number       Type             X           Y           Z
 ---------------------------------------------------------------------
      1          6           0       -0.356562   -0.000013    0.000719
      2         17           0       -2.187678   -0.000003   -0.000041
      3          1           0       -0.026998    0.002372   -1.031902
      4          1           0       -0.028106    0.893310    0.519507
      5          1           0       -0.028106   -0.895728    0.515376
      6          6           0        2.474334    0.000038   -0.001241
      7          7           0        3.654283   -0.000011    0.000335
 ---------------------------------------------------------------------

 SCF Done:  E(RB3LYP) =  -592.994055388     A.U. after   12 cycles

 Alpha  occ. eigenvalues -- -101.40862 -14.09500 -10.09882  -9.95995  -9.32492
 Alpha  occ. eigenvalues --   -7.08787  -7.07959  -7.07959  -0.71458  -0.64827
 Alpha  occ. eigenvalues --   -0.53806  -0.30627  -0.30626  -0.27577  -0.18280
 Alpha  occ. eigenvalues --   -0.17399  -0.17399  -0.09734  -0.09734  -0.06923
 Alpha virt. eigenvalues --    0.10955   0.12876   0.14533   0.14534   0.17319
 Alpha virt. eigenvalues --    0.20369   0.20370   0.20460   0.22096   0.22107
 Alpha virt. eigenvalues --    0.24203   0.24988   0.24993   0.27121   0.27551

 Mulliken charges:
               1
     1  C   -0.431736
     2  Cl  -0.193439
     3  H    0.213702
     4  H    0.213335
     5  H    0.213328
     6  C   -0.510596
     7  N   -0.504594
 Sum of Mulliken charges =  -1.00000

 Dipole moment (field-independent basis, Debye):
    X=            -10.0400    Y=             -0.0001    Z=              0.0029  Tot=             10.0400
 Quadrupole moment (field-independent basis, Debye-Ang):
   XX=            -90.4611   YY=            -35.4379   ZZ=            -35.4371
   XY=             -0.0001   XZ=              0.0008   YZ=              0.0000

  Exact polarizability:  88.930  -0.000  39.844   0.015  -0.000  39.842
 Approx polarizability: 109.673  -0.001  49.712   0.034  -0.000  49.711

 ******    2 imaginary frequencies (negative Signs) ******

                      1                      2                      3
                      A                      A                      A
 Frequencies --    -82.5100               -82.4803               101.9370
 Red. masses --      8.9508                 8.9516                 3.7680
 Frc consts  --      0.0359                 0.0359                 0.0231
 IR Inten    --      0.0503                 0.0501                11.7235

                      4                      5                      6
                      A                      A                      A
 Frequencies --    102.0678               155.1779               610.3947
 Red. masses --      3.7694                12.0161                 9.4476
 Frc consts  --      0.0231                 0.1705                 2.0739
 IR Inten    --     11.7218                55.9908               257.1391

                      7                      8                      9
                      A                      A                      A
 Frequencies --   1013.0247              1013.4786              1310.4496
 Red. masses --      1.1461                 1.1460                 1.0918
 Frc consts  --      0.6930                 0.6935                 1.1046
 IR Inten    --      0.2176                 0.2187                19.8597

                     10                     11                     12
                      A                      A                      A
 Frequencies --   1458.1860              1458.2494              2153.8647
 Red. masses --      1.0616                 1.0616                12.8281
 Frc consts  --      1.3300                 1.3301                35.0629
 IR Inten    --      7.4781                 7.4778                16.5362

                     13                     14                     15
                      A                      A                      A
 Frequencies --   3135.7555              3262.9703              3263.5108
 Red. masses --      1.0245                 1.1118                 1.1118
 Frc consts  --      5.9355                 6.9745                 6.9769
 IR Inten    --     12.7083                 0.2163                 0.2058

 - Thermochemistry -
 -------------------
 Temperature   298.150 Kelvin.  Pressure   1.00000 Atm.
 Atom     1 has atomic number  6 and mass  12.00000

 Molecular mass:    75.99540 amu.
 Principal axes and moments of inertia in atomic units:
                           1         2         3
     Eigenvalues --    11.519291538.991291538.99134
           X            1.00000   0.00005   0.00002
           Y            0.00000  -0.35222   0.93592
           Z           -0.00005   0.93592   0.35222
 This molecule is an asymmetric top.
 Rotational symmetry number  1.
 Rotational temperatures (Kelvin)      7.51903     0.05628     0.05628
 Rotational constants (GHZ):         156.67124     1.17268     1.17268
    2 imaginary frequencies ignored.
 Zero-point vibrational energy     113878.9 (Joules/Mol)
                                   27.21771 (Kcal/Mol)
 Warning -- explicit consideration of   4 degrees of freedom as
           vibrations may cause significant error
 Vibrational temperatures:    146.66   146.85   223.27   878.22  1457.52
          (Kelvin)           1458.17  1885.44  2098.00  2098.10  3098.93
                             4511.65  4694.69  4695.46

 Zero-point correction=                           0.043374 (Hartree/Particle)
 Thermal correction to Energy=                    0.048550
 Thermal correction to Enthalpy=                  0.049494
 Thermal correction to Gibbs Free Energy=         0.014420
 Sum of electronic and zero-point Energies=           -592.950681
 Sum of electronic and thermal Energies=              -592.945506
 Sum of electronic and thermal Enthalpies=            -592.944561
 Sum of electronic and thermal Free Energies=         -592.979635

                     E (Thermal)             CV                S
                      KCal/Mol        Cal/Mol-Kelvin    Cal/Mol-Kelvin
 Total                   30.465             13.812             73.818
 Electronic               0.000              0.000              0.000
 Translational            0.889              2.981             38.900
 Rotational               0.889              2.981             24.815
 Vibrational             28.688              7.851             10.104
 Vibration     1          0.604              1.948              3.417
 Vibration     2          0.604              1.948              3.414
 Vibration     3          0.620              1.897              2.608
 Vibration     4          0.969              1.010              0.432

 Normal termination of Gaussian 16 at Sun Oct 13 09:52:02 2024.
