 Gaussian 16, Revision B.01,
 Gaussian 16:  ES64L-G16RevB.01 20-Dec-2017

 ---------------------------------------------------------------------
 #p b3lyp 6-31++g(d,p) scf=verytight NoSymm freq=noraman int=ultrafine
 ---------------------------------------------------------------------

 ------------------------
 RxCoord=3.29884 DE=46.31
 ------------------------
 Symbolic Z-matrix:
 Charge = -1 Multiplicity = 1

                          Input orientation:
 ---------------------------------------------------------------------
 Center     Atomic      Atomic             Coordinates (Angstroms)
 Number     Number       Type             X           Y           Z
 ---------------------------------------------------------------------
      1          6           0       -0.361825   -0.000014    0.000898
      2         17           0       -2.191950   -0.000003   -0.000053
      3          1           0       -0.028492    0.002374   -1.031791
      4          1           0       -0.029705    0.893395    0.519754
      5          1           0       -0.029721   -0.895814    0.515620
      6          6           0        2.482656    0.000040   -0.001451
      7          7           0        3.662669   -0.000011    0.000347
 ---------------------------------------------------------------------

 SCF Done:  E(RB3LYP) =  -592.994186102     A.U. after   12 cycles

 Alpha  occ. eigenvalues -- -101.40943 -14.09485 -10.09941  -9.95988  -9.32571
 Alpha  occ. eigenvalues --   -7.08868  -7.08037  -7.08037  -0.71523  -0.64809
 Alpha  occ. eigenvalues --   -0.53824  -0.30617  -0.30615  -0.27661  -0.18272
 Alpha  occ. eigenvalues --   -0.17450  -0.17449  -0.09716  -0.09716  -0.06912
 Alpha virt. eigenvalues --    0.10937   0.12837   0.14518   0.14520   0.17321
 Alpha virt. eigenvalues --    0.20347   0.20347   0.20426   0.22090   0.22102
 Alpha virt. eigenvalues --    0.24177   0.24970   0.24977   0.27102   0.27557

 Mulliken charges:
               1
     1  C   -0.433192
     2  Cl  -0.191582
     3  H    0.213809
     4  H    0.213392
     5  H    0.213384
     6  C   -0.512328
     7  N   -0.503483
 Sum of Mulliken charges =  -1.00000

 Dipole moment (field-independent basis, Debye):
    X=            -10.1055    Y=             -0.0001    Z=              0.0035  Tot=             10.1055
 Quadrupole moment (field-independent basis, Debye-Ang):
   XX=            -90.6682   YY=            -35.4462   ZZ=            -35.4454
   XY=             -0.0001   XZ=              0.0016   YZ=             -0.0000

  Exact polarizability:  88.732  -0.000  39.891   0.017  -0.000  39.889
 Approx polarizability: 109.439  -0.001  49.757   0.040  -0.000  49.755

 ******    2 imaginary frequencies (negative Signs) ******

                      1                      2                      3
                      A                      A                      A
 Frequencies --    -80.1944               -80.1628               101.4494
 Red. masses --      9.0700                 9.0696                 3.7479
 Frc consts  --      0.0344                 0.0343                 0.0227
 IR Inten    --      0.0329                 0.0328                11.7084

                      4                      5                      6
                      A                      A                      A
 Frequencies --    101.5886               152.7751               613.7773
 Red. masses --      3.7496                11.9921                 9.2967
 Frc consts  --      0.0228                 0.1649                 2.0635
 IR Inten    --     11.7063                54.8560               250.4711

                      7                      8                      9
                      A                      A                      A
 Frequencies --   1014.7060              1015.1806              1315.1457
 Red. masses --      1.1465                 1.1464                 1.0936
 Frc consts  --      0.6955                 0.6961                 1.1145
 IR Inten    --      0.2383                 0.2394                19.1359

                     10                     11                     12
                      A                      A                      A
 Frequencies --   1460.2124              1460.2639              2153.2631
 Red. masses --      1.0614                 1.0615                12.8290
 Frc consts  --      1.3335                 1.3336                35.0460
 IR Inten    --      7.5166                 7.5179                16.6823

                     13                     14                     15
                      A                      A                      A
 Frequencies --   3125.6345              3250.8482              3251.3796
 Red. masses --      1.0248                 1.1116                 1.1116
 Frc consts  --      5.8990                 6.9214                 6.9237
 IR Inten    --     12.5649                 0.2625                 0.2494

 - Thermochemistry -
 -------------------
 Temperature   298.150 Kelvin.  Pressure   1.00000 Atm.
 Atom     1 has atomic number  6 and mass  12.00000

 Molecular mass:    75.99540 amu.
 Principal axes and moments of inertia in atomic units:
                           1         2         3
     Eigenvalues --    11.521431546.327881546.32792
           X            1.00000  -0.00003   0.00006
           Y            0.00000   0.90813   0.41868
           Z           -0.00006  -0.41868   0.90813
 This molecule is an asymmetric top.
 Rotational symmetry number  1.
 Rotational temperatures (Kelvin)      7.51764     0.05601     0.05601
 Rotational constants (GHZ):         156.64213     1.16711     1.16711
    2 imaginary frequencies ignored.
 Zero-point vibrational energy     113742.3 (Joules/Mol)
                                   27.18506 (Kcal/Mol)
 Warning -- explicit consideration of   4 degrees of freedom as
           vibrations may cause significant error
 Vibrational temperatures:    145.96   146.16   219.81   883.09  1459.94
          (Kelvin)           1460.62  1892.20  2100.92  2100.99  3098.07
                             4497.09  4677.25  4678.01

 Zero-point correction=                           0.043322 (Hartree/Particle)
 Thermal correction to Energy=                    0.048501
 Thermal correction to Enthalpy=                  0.049445
 Thermal correction to Gibbs Free Energy=         0.014348
 Sum of electronic and zero-point Energies=           -592.950864
 Sum of electronic and thermal Energies=              -592.945685
 Sum of electronic and thermal Enthalpies=            -592.944741
 Sum of electronic and thermal Free Energies=         -592.979838

                     E (Thermal)             CV                S
                      KCal/Mol        Cal/Mol-Kelvin    Cal/Mol-Kelvin
 Total                   30.435             13.802             73.869
 Electronic               0.000              0.000              0.000
 Translational            0.889              2.981             38.900
 Rotational               0.889              2.981             24.825
 Vibrational             28.657              7.840             10.144
 Vibration     1          0.604              1.948              3.426
 Vibration     2          0.604              1.948              3.424
 Vibration     3          0.619              1.900              2.637
 Vibration     4          0.973              1.003              0.427

 Normal termination of Gaussian 16 at Sun Oct 13 09:52:03 2024.
