 Gaussian 16, Revision B.01,
 Gaussian 16:  ES64L-G16RevB.01 20-Dec-2017

 ---------------------------------------------------------------------
 #p b3lyp 6-31++g(d,p) scf=verytight NoSymm freq=noraman int=ultrafine
 ---------------------------------------------------------------------

 ------------------------
 RxCoord=3.39866 DE=46.19
 ------------------------
 Symbolic Z-matrix:
 Charge = -1 Multiplicity = 1

                          Input orientation:
 ---------------------------------------------------------------------
 Center     Atomic      Atomic             Coordinates (Angstroms)
 Number     Number       Type             X           Y           Z
 ---------------------------------------------------------------------
      1          6           0       -0.365316   -0.000014    0.001088
      2         17           0       -2.196173   -0.000003   -0.000066
      3          1           0       -0.037057    0.002370   -1.031280
      4          1           0       -0.038451    0.893175    0.519823
      5          1           0       -0.038461   -0.895598    0.515692
      6          6           0        2.490901    0.000042   -0.001673
      7          7           0        3.671015   -0.000012    0.000362
 ---------------------------------------------------------------------

 SCF Done:  E(RB3LYP) =  -592.994277468     A.U. after   12 cycles

 Alpha  occ. eigenvalues -- -101.40963 -14.09477 -10.09969  -9.95990  -9.32592
 Alpha  occ. eigenvalues --   -7.08889  -7.08058  -7.08057  -0.71565  -0.64794
 Alpha  occ. eigenvalues --   -0.53906  -0.30749  -0.30747  -0.27641  -0.18267
 Alpha  occ. eigenvalues --   -0.17487  -0.17487  -0.09703  -0.09703  -0.06907
 Alpha virt. eigenvalues --    0.10917   0.12810   0.14500   0.14502   0.17320
 Alpha virt. eigenvalues --    0.20329   0.20330   0.20382   0.22068   0.22082
 Alpha virt. eigenvalues --    0.24141   0.24954   0.24961   0.27090   0.27579

 Mulliken charges:
               1
     1  C   -0.433089
     2  Cl  -0.194394
     3  H    0.214065
     4  H    0.213578
     5  H    0.213569
     6  C   -0.511238
     7  N   -0.502490
 Sum of Mulliken charges =  -1.00000

 Dipole moment (field-independent basis, Debye):
    X=            -10.1533    Y=             -0.0001    Z=              0.0042  Tot=             10.1533
 Quadrupole moment (field-independent basis, Debye-Ang):
   XX=            -90.9467   YY=            -35.4392   ZZ=            -35.4384
   XY=             -0.0001   XZ=              0.0022   YZ=              0.0000

  Exact polarizability:  88.563  -0.000  39.901   0.019  -0.000  39.898
 Approx polarizability: 109.212  -0.001  49.729   0.045  -0.000  49.726

 ******    2 imaginary frequencies (negative Signs) ******

                      1                      2                      3
                      A                      A                      A
 Frequencies --    -78.6826               -78.6399                96.0242
 Red. masses --      8.5994                 8.6019                 3.8116
 Frc consts  --      0.0314                 0.0313                 0.0207
 IR Inten    --      0.0918                 0.0912                11.7979

                      4                      5                      6
                      A                      A                      A
 Frequencies --     96.1924               149.1544               612.8660
 Red. masses --      3.8131                11.9707                 9.4115
 Frc consts  --      0.0208                 0.1569                 2.0828
 IR Inten    --     11.7959                54.7865               248.4638

                      7                      8                      9
                      A                      A                      A
 Frequencies --   1010.0190              1010.5699              1310.8333
 Red. masses --      1.1483                 1.1482                 1.0927
 Frc consts  --      0.6902                 0.6909                 1.1062
 IR Inten    --      0.2169                 0.2178                19.4135

                     10                     11                     12
                      A                      A                      A
 Frequencies --   1457.8873              1457.9377              2152.3704
 Red. masses --      1.0615                 1.0615                12.8302
 Frc consts  --      1.3292                 1.3293                35.0202
 IR Inten    --      7.5295                 7.5332                16.7411

                     13                     14                     15
                      A                      A                      A
 Frequencies --   3141.2129              3268.8682              3269.5376
 Red. masses --      1.0245                 1.1119                 1.1119
 Frc consts  --      5.9558                 6.9999                 7.0028
 IR Inten    --     12.8950                 0.2117                 0.1984

 - Thermochemistry -
 -------------------
 Temperature   298.150 Kelvin.  Pressure   1.00000 Atm.
 Atom     1 has atomic number  6 and mass  12.00000

 Molecular mass:    75.99540 amu.
 Principal axes and moments of inertia in atomic units:
                           1         2         3
     Eigenvalues --    11.515401553.571811553.57226
           X            1.00000  -0.00001   0.00008
           Y            0.00000   0.99920   0.04000
           Z           -0.00008  -0.04000   0.99920
 This molecule is an asymmetric top.
 Rotational symmetry number  1.
 Rotational temperatures (Kelvin)      7.52158     0.05575     0.05575
 Rotational constants (GHZ):         156.72419     1.16167     1.16167
    2 imaginary frequencies ignored.
 Zero-point vibrational energy     113845.5 (Joules/Mol)
                                   27.20972 (Kcal/Mol)
 Warning -- explicit consideration of   4 degrees of freedom as
           vibrations may cause significant error
 Vibrational temperatures:    138.16   138.40   214.60   881.78  1453.19
          (Kelvin)           1453.98  1886.00  2097.57  2097.65  3096.78
                             4519.50  4703.17  4704.14

 Zero-point correction=                           0.043361 (Hartree/Particle)
 Thermal correction to Energy=                    0.048570
 Thermal correction to Enthalpy=                  0.049514
 Thermal correction to Gibbs Free Energy=         0.014286
 Sum of electronic and zero-point Energies=           -592.950916
 Sum of electronic and thermal Energies=              -592.945708
 Sum of electronic and thermal Enthalpies=            -592.944764
 Sum of electronic and thermal Free Energies=         -592.979991

                     E (Thermal)             CV                S
                      KCal/Mol        Cal/Mol-Kelvin    Cal/Mol-Kelvin
 Total                   30.478             13.829             74.142
 Electronic               0.000              0.000              0.000
 Translational            0.889              2.981             38.900
 Rotational               0.889              2.981             24.834
 Vibrational             28.700              7.867             10.409
 Vibration     1          0.603              1.952              3.533
 Vibration     2          0.603              1.952              3.530
 Vibration     3          0.618              1.904              2.683
 Vibration     4          0.972              1.005              0.428

 Normal termination of Gaussian 16 at Sun Oct 13 09:52:03 2024.
