 Gaussian 16, Revision B.01,
 Gaussian 16:  ES64L-G16RevB.01 20-Dec-2017

 ---------------------------------------------------------------------
 #p b3lyp 6-31++g(d,p) scf=verytight NoSymm freq=noraman int=ultrafine
 ---------------------------------------------------------------------

 ------------------------
 RxCoord=3.49776 DE=46.07
 ------------------------
 Symbolic Z-matrix:
 Charge = -1 Multiplicity = 1

                          Input orientation:
 ---------------------------------------------------------------------
 Center     Atomic      Atomic             Coordinates (Angstroms)
 Number     Number       Type             X           Y           Z
 ---------------------------------------------------------------------
      1          6           0       -0.370834   -0.000015    0.001262
      2         17           0       -2.200362   -0.000003   -0.000074
      3          1           0       -0.037562    0.002365   -1.031407
      4          1           0       -0.039086    0.893466    0.520152
      5          1           0       -0.039086   -0.895887    0.516027
      6          6           0        2.499117    0.000043   -0.001883
      7          7           0        3.679290   -0.000012    0.000374
 ---------------------------------------------------------------------

 SCF Done:  E(RB3LYP) =  -592.994397317     A.U. after   12 cycles

 Alpha  occ. eigenvalues -- -101.41051 -14.09461 -10.10035  -9.95981  -9.32677
 Alpha  occ. eigenvalues --   -7.08977  -7.08142  -7.08142  -0.71633  -0.64775
 Alpha  occ. eigenvalues --   -0.53910  -0.30717  -0.30713  -0.27739  -0.18257
 Alpha  occ. eigenvalues --   -0.17537  -0.17537  -0.09685  -0.09685  -0.06895
 Alpha virt. eigenvalues --    0.10899   0.12770   0.14486   0.14489   0.17323
 Alpha virt. eigenvalues --    0.20307   0.20308   0.20353   0.22064   0.22078
 Alpha virt. eigenvalues --    0.24116   0.24937   0.24945   0.27068   0.27583

 Mulliken charges:
               1
     1  C   -0.434759
     2  Cl  -0.191778
     3  H    0.214128
     4  H    0.213589
     5  H    0.213582
     6  C   -0.513343
     7  N   -0.501420
 Sum of Mulliken charges =  -1.00000

 Dipole moment (field-independent basis, Debye):
    X=            -10.2206    Y=             -0.0001    Z=              0.0048  Tot=             10.2206
 Quadrupole moment (field-independent basis, Debye-Ang):
   XX=            -91.1434   YY=            -35.4495   ZZ=            -35.4488
   XY=             -0.0001   XZ=              0.0030   YZ=              0.0000

  Exact polarizability:  88.364  -0.001  39.956   0.021  -0.000  39.953
 Approx polarizability: 108.981  -0.001  49.789   0.051  -0.000  49.786

 ******    2 imaginary frequencies (negative Signs) ******

                      1                      2                      3
                      A                      A                      A
 Frequencies --    -76.0920               -76.0505                96.5859
 Red. masses --      8.8272                 8.8274                 3.7752
 Frc consts  --      0.0301                 0.0301                 0.0208
 IR Inten    --      0.0527                 0.0525                11.7754

                      4                      5                      6
                      A                      A                      A
 Frequencies --     96.7503               146.9974               616.9647
 Red. masses --      3.7770                11.9479                 9.2229
 Frc consts  --      0.0208                 0.1521                 2.0684
 IR Inten    --     11.7727                53.5889               241.4655

                      7                      8                      9
                      A                      A                      A
 Frequencies --   1013.3681              1013.9186              1317.2122
 Red. masses --      1.1482                 1.1481                 1.0950
 Frc consts  --      0.6947                 0.6954                 1.1194
 IR Inten    --      0.2440                 0.2446                18.5774

                     10                     11                     12
                      A                      A                      A
 Frequencies --   1460.7615              1460.7667              2151.8180
 Red. masses --      1.0613                 1.0613                12.8311
 Frc consts  --      1.3343                 1.3343                35.0045
 IR Inten    --      7.5651                 7.5670                16.8936

                     13                     14                     15
                      A                      A                      A
 Frequencies --   3126.0162              3251.0165              3251.5593
 Red. masses --      1.0249                 1.1116                 1.1116
 Frc consts  --      5.9006                 6.9219                 6.9242
 IR Inten    --     12.7191                 0.2741                 0.2581

 - Thermochemistry -
 -------------------
 Temperature   298.150 Kelvin.  Pressure   1.00000 Atm.
 Atom     1 has atomic number  6 and mass  12.00000

 Molecular mass:    75.99540 amu.
 Principal axes and moments of inertia in atomic units:
                           1         2         3
     Eigenvalues --    11.522601560.848111560.84883
           X            1.00000  -0.00000   0.00009
           Y            0.00000   0.99978   0.02110
           Z           -0.00009  -0.02110   0.99978
 This molecule is an asymmetric top.
 Rotational symmetry number  1.
 Rotational temperatures (Kelvin)      7.51688     0.05549     0.05549
 Rotational constants (GHZ):         156.62627     1.15626     1.15626
    2 imaginary frequencies ignored.
 Zero-point vibrational energy     113667.6 (Joules/Mol)
                                   27.16720 (Kcal/Mol)
 Warning -- explicit consideration of   4 degrees of freedom as
           vibrations may cause significant error
 Vibrational temperatures:    138.97   139.20   211.50   887.67  1458.01
          (Kelvin)           1458.80  1895.17  2101.71  2101.72  3095.99
                             4497.64  4677.49  4678.27

 Zero-point correction=                           0.043294 (Hartree/Particle)
 Thermal correction to Energy=                    0.048500
 Thermal correction to Enthalpy=                  0.049444
 Thermal correction to Gibbs Free Energy=         0.014214
 Sum of electronic and zero-point Energies=           -592.951104
 Sum of electronic and thermal Energies=              -592.945897
 Sum of electronic and thermal Enthalpies=            -592.944953
 Sum of electronic and thermal Free Energies=         -592.980183

                     E (Thermal)             CV                S
                      KCal/Mol        Cal/Mol-Kelvin    Cal/Mol-Kelvin
 Total                   30.434             13.810             74.147
 Electronic               0.000              0.000              0.000
 Translational            0.889              2.981             38.900
 Rotational               0.889              2.981             24.843
 Vibrational             28.657              7.849             10.404
 Vibration     1          0.603              1.952              3.522
 Vibration     2          0.603              1.951              3.519
 Vibration     3          0.617              1.906              2.711
 Vibration     4          0.977              0.996              0.421

 Normal termination of Gaussian 16 at Sun Oct 13 09:52:04 2024.
