 Gaussian 16, Revision B.01,
 Gaussian 16:  ES64L-G16RevB.01 20-Dec-2017

 ---------------------------------------------------------------------
 #p b3lyp 6-31++g(d,p) scf=verytight NoSymm freq=noraman int=ultrafine
 ---------------------------------------------------------------------

 ------------------------
 RxCoord=3.59763 DE=45.95
 ------------------------
 Symbolic Z-matrix:
 Charge = -1 Multiplicity = 1

                          Input orientation:
 ---------------------------------------------------------------------
 Center     Atomic      Atomic             Coordinates (Angstroms)
 Number     Number       Type             X           Y           Z
 ---------------------------------------------------------------------
      1          6           0       -0.374734   -0.000014    0.001426
      2         17           0       -2.204829   -0.000004   -0.000080
      3          1           0       -0.042582    0.002361   -1.030904
      4          1           0       -0.044168    0.893230    0.520150
      5          1           0       -0.044201   -0.895638    0.516035
      6          6           0        2.507470    0.000043   -0.002089
      7          7           0        3.687725   -0.000012    0.000389
 ---------------------------------------------------------------------

 SCF Done:  E(RB3LYP) =  -592.994502734     A.U. after   12 cycles

 Alpha  occ. eigenvalues -- -101.41094 -14.09453 -10.10075  -9.95982  -9.32719
 Alpha  occ. eigenvalues --   -7.09020  -7.08184  -7.08184  -0.71671  -0.64763
 Alpha  occ. eigenvalues --   -0.53972  -0.30783  -0.30779  -0.27760  -0.18253
 Alpha  occ. eigenvalues --   -0.17580  -0.17580  -0.09674  -0.09673  -0.06891
 Alpha virt. eigenvalues --    0.10880   0.12734   0.14470   0.14474   0.17319
 Alpha virt. eigenvalues --    0.20286   0.20288   0.20305   0.22050   0.22066
 Alpha virt. eigenvalues --    0.24085   0.24919   0.24928   0.27052   0.27595

 Mulliken charges:
               1
     1  C   -0.435079
     2  Cl  -0.192926
     3  H    0.214332
     4  H    0.213742
     5  H    0.213732
     6  C   -0.513306
     7  N   -0.500494
 Sum of Mulliken charges =  -1.00000

 Dipole moment (field-independent basis, Debye):
    X=            -10.2717    Y=             -0.0001    Z=              0.0054  Tot=             10.2717
 Quadrupole moment (field-independent basis, Debye-Ang):
   XX=            -91.3939   YY=            -35.4495   ZZ=            -35.4489
   XY=             -0.0000   XZ=              0.0038   YZ=             -0.0000

  Exact polarizability:  88.247  -0.000  39.978   0.024  -0.000  39.974
 Approx polarizability: 108.833  -0.001  49.786   0.057   0.000  49.782

 ******    2 imaginary frequencies (negative Signs) ******

                      1                      2                      3
                      A                      A                      A
 Frequencies --    -74.0044               -73.9532                93.8997
 Red. masses --      8.6137                 8.6158                 3.8027
 Frc consts  --      0.0278                 0.0278                 0.0198
 IR Inten    --      0.0789                 0.0783                11.8245

                      4                      5                      6
                      A                      A                      A
 Frequencies --     94.0861               143.9863               616.6709
 Red. masses --      3.8042                11.9263                 9.2288
 Frc consts  --      0.0198                 0.1457                 2.0678
 IR Inten    --     11.8216                53.2127               238.1571

                      7                      8                      9
                      A                      A                      A
 Frequencies --   1010.6562              1011.2367              1316.2325
 Red. masses --      1.1494                 1.1492                 1.0952
 Frc consts  --      0.6917                 0.6924                 1.1179
 IR Inten    --      0.2423                 0.2426                18.4908

                     10                     11                     12
                      A                      A                      A
 Frequencies --   1460.0828              1460.0943              2151.0832
 Red. masses --      1.0612                 1.0612                12.8320
 Frc consts  --      1.3330                 1.3330                34.9832
 IR Inten    --      7.5995                 7.5973                16.9739

                     13                     14                     15
                      A                      A                      A
 Frequencies --   3131.7275              3257.2562              3257.9381
 Red. masses --      1.0248                 1.1116                 1.1116
 Frc consts  --      5.9218                 6.9487                 6.9516
 IR Inten    --     12.7340                 0.2621                 0.2453

 - Thermochemistry -
 -------------------
 Temperature   298.150 Kelvin.  Pressure   1.00000 Atm.
 Atom     1 has atomic number  6 and mass  12.00000

 Molecular mass:    75.99540 amu.
 Principal axes and moments of inertia in atomic units:
                           1         2         3
     Eigenvalues --    11.515811568.330381568.33164
           X            1.00000  -0.00000   0.00010
           Y            0.00000   0.99998   0.00628
           Z           -0.00010  -0.00628   0.99998
 This molecule is an asymmetric top.
 Rotational symmetry number  1.
 Rotational temperatures (Kelvin)      7.52130     0.05523     0.05523
 Rotational constants (GHZ):         156.71853     1.15074     1.15074
    2 imaginary frequencies ignored.
 Zero-point vibrational energy     113674.8 (Joules/Mol)
                                   27.16894 (Kcal/Mol)
 Warning -- explicit consideration of   4 degrees of freedom as
           vibrations may cause significant error
 Vibrational temperatures:    135.10   135.37   207.16   887.25  1454.11
          (Kelvin)           1454.94  1893.76  2100.73  2100.75  3094.93
                             4505.86  4686.47  4687.45

 Zero-point correction=                           0.043296 (Hartree/Particle)
 Thermal correction to Energy=                    0.048519
 Thermal correction to Enthalpy=                  0.049463
 Thermal correction to Gibbs Free Energy=         0.014157
 Sum of electronic and zero-point Energies=           -592.951206
 Sum of electronic and thermal Energies=              -592.945983
 Sum of electronic and thermal Enthalpies=            -592.945039
 Sum of electronic and thermal Free Energies=         -592.980345

                     E (Thermal)             CV                S
                      KCal/Mol        Cal/Mol-Kelvin    Cal/Mol-Kelvin
 Total                   30.446             13.824             74.308
 Electronic               0.000              0.000              0.000
 Translational            0.889              2.981             38.900
 Rotational               0.889              2.981             24.852
 Vibrational             28.669              7.863             10.556
 Vibration     1          0.603              1.954              3.577
 Vibration     2          0.603              1.953              3.573
 Vibration     3          0.616              1.909              2.750
 Vibration     4          0.976              0.997              0.422

 Normal termination of Gaussian 16 at Sun Oct 13 09:52:11 2024.
