 Gaussian 16, Revision B.01,
 Gaussian 16:  ES64L-G16RevB.01 20-Dec-2017

 ---------------------------------------------------------------------
 #p b3lyp 6-31++g(d,p) scf=verytight NoSymm freq=noraman int=ultrafine
 ---------------------------------------------------------------------

 ------------------------
 RxCoord=3.69758 DE=45.85
 ------------------------
 Symbolic Z-matrix:
 Charge = -1 Multiplicity = 1

                          Input orientation:
 ---------------------------------------------------------------------
 Center     Atomic      Atomic             Coordinates (Angstroms)
 Number     Number       Type             X           Y           Z
 ---------------------------------------------------------------------
      1          6           0       -0.379532   -0.000015    0.001559
      2         17           0       -2.209114   -0.000003   -0.000081
      3          1           0       -0.046148    0.002349   -1.030763
      4          1           0       -0.047957    0.893248    0.520258
      5          1           0       -0.047936   -0.895659    0.516155
      6          6           0        2.515838    0.000044   -0.002266
      7          7           0        3.696163   -0.000013    0.000401
 ---------------------------------------------------------------------

 SCF Done:  E(RB3LYP) =  -592.994594221     A.U. after   12 cycles

 Alpha  occ. eigenvalues -- -101.41156 -14.09441 -10.10125  -9.95977  -9.32779
 Alpha  occ. eigenvalues --   -7.09081  -7.08243  -7.08243  -0.71728  -0.64746
 Alpha  occ. eigenvalues --   -0.54008  -0.30816  -0.30809  -0.27815  -0.18244
 Alpha  occ. eigenvalues --   -0.17626  -0.17625  -0.09658  -0.09658  -0.06881
 Alpha virt. eigenvalues --    0.10861   0.12699   0.14454   0.14458   0.17320
 Alpha virt. eigenvalues --    0.20262   0.20268   0.20274   0.22039   0.22056
 Alpha virt. eigenvalues --    0.24056   0.24902   0.24911   0.27034   0.27606

 Mulliken charges:
               1
     1  C   -0.436027
     2  Cl  -0.192369
     3  H    0.214472
     4  H    0.213825
     5  H    0.213820
     6  C   -0.514219
     7  N   -0.499501
 Sum of Mulliken charges =  -1.00000

 Dipole moment (field-independent basis, Debye):
    X=            -10.3315    Y=             -0.0001    Z=              0.0059  Tot=             10.3315
 Quadrupole moment (field-independent basis, Debye-Ang):
   XX=            -91.6273   YY=            -35.4530   ZZ=            -35.4527
   XY=             -0.0001   XZ=              0.0043   YZ=              0.0000

  Exact polarizability:  88.065  -0.001  40.014   0.025  -0.000  40.010
 Approx polarizability: 108.612  -0.001  49.809   0.060  -0.000  49.806

 ******    2 imaginary frequencies (negative Signs) ******

                      1                      2                      3
                      A                      A                      A
 Frequencies --    -71.8901               -71.8471                92.1927
 Red. masses --      8.5554                 8.5540                 3.8094
 Frc consts  --      0.0261                 0.0260                 0.0191
 IR Inten    --      0.0830                 0.0829                11.8405

                      4                      5                      6
                      A                      A                      A
 Frequencies --     92.3481               141.2880               618.7208
 Red. masses --      3.8115                11.9056                 9.1604
 Frc consts  --      0.0192                 0.1400                 2.0661
 IR Inten    --     11.8369                52.5032               233.2907

                      7                      8                      9
                      A                      A                      A
 Frequencies --   1010.7366              1011.2849              1318.3347
 Red. masses --      1.1501                 1.1499                 1.0962
 Frc consts  --      0.6923                 0.6929                 1.1225
 IR Inten    --      0.2523                 0.2517                18.0867

                     10                     11                     12
                      A                      A                      A
 Frequencies --   1460.7987              1460.8954              2150.4442
 Red. masses --      1.0611                 1.0611                12.8329
 Frc consts  --      1.3341                 1.3343                34.9648
 IR Inten    --      7.6320                 7.6251                17.0852

                     13                     14                     15
                      A                      A                      A
 Frequencies --   3128.9579              3253.9438              3254.3047
 Red. masses --      1.0249                 1.1115                 1.1115
 Frc consts  --      5.9120                 6.9341                 6.9356
 IR Inten    --     12.7317                 0.2808                 0.2639

 - Thermochemistry -
 -------------------
 Temperature   298.150 Kelvin.  Pressure   1.00000 Atm.
 Atom     1 has atomic number  6 and mass  12.00000

 Molecular mass:    75.99540 amu.
 Principal axes and moments of inertia in atomic units:
                           1         2         3
     Eigenvalues --    11.515911575.767781575.76943
           X            1.00000  -0.00000   0.00012
           Y            0.00000   0.99999   0.00465
           Z           -0.00012  -0.00465   0.99999
 This molecule is an asymmetric top.
 Rotational symmetry number  1.
 Rotational temperatures (Kelvin)      7.52124     0.05497     0.05497
 Rotational constants (GHZ):         156.71716     1.14531     1.14531
    2 imaginary frequencies ignored.
 Zero-point vibrational energy     113610.8 (Joules/Mol)
                                   27.15364 (Kcal/Mol)
 Warning -- explicit consideration of   4 degrees of freedom as
           vibrations may cause significant error
 Vibrational temperatures:    132.64   132.87   203.28   890.20  1454.22
          (Kelvin)           1455.01  1896.79  2101.76  2101.90  3094.01
                             4501.87  4681.70  4682.22

 Zero-point correction=                           0.043272 (Hartree/Particle)
 Thermal correction to Energy=                    0.048505
 Thermal correction to Enthalpy=                  0.049449
 Thermal correction to Gibbs Free Energy=         0.014089
 Sum of electronic and zero-point Energies=           -592.951322
 Sum of electronic and thermal Energies=              -592.946089
 Sum of electronic and thermal Enthalpies=            -592.945145
 Sum of electronic and thermal Free Energies=         -592.980505

                     E (Thermal)             CV                S
                      KCal/Mol        Cal/Mol-Kelvin    Cal/Mol-Kelvin
 Total                   30.437             13.824             74.422
 Electronic               0.000              0.000              0.000
 Translational            0.889              2.981             38.900
 Rotational               0.889              2.981             24.862
 Vibrational             28.660              7.862             10.660
 Vibration     1          0.602              1.955              3.613
 Vibration     2          0.602              1.955              3.610
 Vibration     3          0.615              1.912              2.786
 Vibration     4          0.979              0.992              0.419

 Normal termination of Gaussian 16 at Sun Oct 13 09:52:12 2024.
