 Gaussian 16, Revision B.01,
 Gaussian 16:  ES64L-G16RevB.01 20-Dec-2017

 ---------------------------------------------------------------------
 #p b3lyp 6-31++g(d,p) scf=verytight NoSymm freq=noraman int=ultrafine
 ---------------------------------------------------------------------

 ------------------------
 RxCoord=3.79756 DE=45.74
 ------------------------
 Symbolic Z-matrix:
 Charge = -1 Multiplicity = 1

                          Input orientation:
 ---------------------------------------------------------------------
 Center     Atomic      Atomic             Coordinates (Angstroms)
 Number     Number       Type             X           Y           Z
 ---------------------------------------------------------------------
      1          6           0       -0.383909   -0.000012    0.001668
      2         17           0       -2.213500   -0.000004   -0.000083
      3          1           0       -0.050454    0.002351   -1.030574
      4          1           0       -0.052145    0.893238    0.520334
      5          1           0       -0.052219   -0.895622    0.516244
      6          6           0        2.524214    0.000041   -0.002416
      7          7           0        3.704611   -0.000012    0.000417
 ---------------------------------------------------------------------

 SCF Done:  E(RB3LYP) =  -592.994681116     A.U. after   12 cycles

 Alpha  occ. eigenvalues -- -101.41208 -14.09431 -10.10173  -9.95975  -9.32830
 Alpha  occ. eigenvalues --   -7.09134  -7.08294  -7.08294  -0.71775  -0.64732
 Alpha  occ. eigenvalues --   -0.54054  -0.30860  -0.30854  -0.27854  -0.18238
 Alpha  occ. eigenvalues --   -0.17670  -0.17669  -0.09644  -0.09644  -0.06874
 Alpha virt. eigenvalues --    0.10842   0.12663   0.14439   0.14443   0.17319
 Alpha virt. eigenvalues --    0.20226   0.20248   0.20249   0.22027   0.22044
 Alpha virt. eigenvalues --    0.24026   0.24884   0.24894   0.27016   0.27617

 Mulliken charges:
               1
     1  C   -0.436628
     2  Cl  -0.192557
     3  H    0.214607
     4  H    0.213939
     5  H    0.213925
     6  C   -0.514709
     7  N   -0.498577
 Sum of Mulliken charges =  -1.00000

 Dipole moment (field-independent basis, Debye):
    X=            -10.3869    Y=             -0.0001    Z=              0.0063  Tot=             10.3869
 Quadrupole moment (field-independent basis, Debye-Ang):
   XX=            -91.8705   YY=            -35.4551   ZZ=            -35.4548
   XY=              0.0000   XZ=              0.0050   YZ=             -0.0000

  Exact polarizability:  87.923  -0.000  40.045   0.027   0.000  40.041
 Approx polarizability: 108.437  -0.001  49.824   0.066   0.000  49.819

 ******    2 imaginary frequencies (negative Signs) ******

                      1                      2                      3
                      A                      A                      A
 Frequencies --    -69.7913               -69.7305                90.2579
 Red. masses --      8.4323                 8.4351                 3.8271
 Frc consts  --      0.0242                 0.0242                 0.0184
 IR Inten    --      0.0990                 0.0982                11.8675

                      4                      5                      6
                      A                      A                      A
 Frequencies --     90.4653               138.4894               619.6270
 Red. masses --      3.8285                11.8853                 9.1240
 Frc consts  --      0.0185                 0.1343                 2.0639
 IR Inten    --     11.8639                51.9767               229.3142

                      7                      8                      9
                      A                      A                      A
 Frequencies --   1009.8783              1010.4572              1319.2345
 Red. masses --      1.1509                 1.1506                 1.0968
 Frc consts  --      0.6915                 0.6922                 1.1247
 IR Inten    --      0.2568                 0.2564                17.8367

                     10                     11                     12
                      A                      A                      A
 Frequencies --   1461.0553              1461.1012              2149.7921
 Red. masses --      1.0611                 1.0611                12.8337
 Frc consts  --      1.3345                 1.3346                34.9458
 IR Inten    --      7.6599                 7.6512                17.1797

                     13                     14                     15
                      A                      A                      A
 Frequencies --   3129.1466              3253.7546              3254.5354
 Red. masses --      1.0249                 1.1115                 1.1115
 Frc consts  --      5.9128                 6.9331                 6.9364
 IR Inten    --     12.7388                 0.2880                 0.2691

 - Thermochemistry -
 -------------------
 Temperature   298.150 Kelvin.  Pressure   1.00000 Atm.
 Atom     1 has atomic number  6 and mass  12.00000

 Molecular mass:    75.99540 amu.
 Principal axes and moments of inertia in atomic units:
                           1         2         3
     Eigenvalues --    11.514871583.272581583.27467
           X            1.00000  -0.00000   0.00012
           Y            0.00000   1.00000   0.00276
           Z           -0.00012  -0.00276   1.00000
 This molecule is an asymmetric top.
 Rotational symmetry number  1.
 Rotational temperatures (Kelvin)      7.52192     0.05471     0.05471
 Rotational constants (GHZ):         156.73141     1.13988     1.13988
    2 imaginary frequencies ignored.
 Zero-point vibrational energy     113572.2 (Joules/Mol)
                                   27.14442 (Kcal/Mol)
 Warning -- explicit consideration of   4 degrees of freedom as
           vibrations may cause significant error
 Vibrational temperatures:    129.86   130.16   199.26   891.51  1452.99
          (Kelvin)           1453.82  1898.08  2102.13  2102.20  3093.07
                             4502.14  4681.43  4682.55

 Zero-point correction=                           0.043257 (Hartree/Particle)
 Thermal correction to Energy=                    0.048503
 Thermal correction to Enthalpy=                  0.049447
 Thermal correction to Gibbs Free Energy=         0.014025
 Sum of electronic and zero-point Energies=           -592.951424
 Sum of electronic and thermal Energies=              -592.946179
 Sum of electronic and thermal Enthalpies=            -592.945234
 Sum of electronic and thermal Free Energies=         -592.980656

                     E (Thermal)             CV                S
                      KCal/Mol        Cal/Mol-Kelvin    Cal/Mol-Kelvin
 Total                   30.436             13.829             74.550
 Electronic               0.000              0.000              0.000
 Translational            0.889              2.981             38.900
 Rotational               0.889              2.981             24.871
 Vibrational             28.658              7.867             10.779
 Vibration     1          0.602              1.956              3.654
 Vibration     2          0.602              1.956              3.650
 Vibration     3          0.614              1.915              2.825
 Vibration     4          0.980              0.990              0.417

 Normal termination of Gaussian 16 at Sun Oct 13 09:52:14 2024.
