 Gaussian 16, Revision B.01,
 Gaussian 16:  ES64L-G16RevB.01 20-Dec-2017

 ---------------------------------------------------------------------
 #p b3lyp 6-31++g(d,p) scf=verytight NoSymm freq=noraman int=ultrafine
 ---------------------------------------------------------------------

 ------------------------
 RxCoord=3.89754 DE=45.65
 ------------------------
 Symbolic Z-matrix:
 Charge = -1 Multiplicity = 1

                          Input orientation:
 ---------------------------------------------------------------------
 Center     Atomic      Atomic             Coordinates (Angstroms)
 Number     Number       Type             X           Y           Z
 ---------------------------------------------------------------------
      1          6           0       -0.388476   -0.000015    0.001730
      2         17           0       -2.217827   -0.000002   -0.000078
      3          1           0       -0.054396    0.002327   -1.030521
      4          1           0       -0.056560    0.893243    0.520350
      5          1           0       -0.056462   -0.895650    0.516271
      6          6           0        2.532593    0.000045   -0.002510
      7          7           0        3.713054   -0.000015    0.000425
 ---------------------------------------------------------------------

 SCF Done:  E(RB3LYP) =  -592.994757581     A.U. after   12 cycles

 Alpha  occ. eigenvalues -- -101.41263 -14.09419 -10.10222  -9.95972  -9.32884
 Alpha  occ. eigenvalues --   -7.09189  -7.08347  -7.08347  -0.71827  -0.64717
 Alpha  occ. eigenvalues --   -0.54096  -0.30904  -0.30893  -0.27898  -0.18230
 Alpha  occ. eigenvalues --   -0.17714  -0.17712  -0.09630  -0.09630  -0.06865
 Alpha virt. eigenvalues --    0.10823   0.12628   0.14423   0.14427   0.17319
 Alpha virt. eigenvalues --    0.20190   0.20228   0.20228   0.22015   0.22032
 Alpha virt. eigenvalues --    0.23996   0.24866   0.24877   0.26997   0.27628

 Mulliken charges:
               1
     1  C   -0.437326
     2  Cl  -0.192445
     3  H    0.214751
     4  H    0.214016
     5  H    0.214018
     6  C   -0.515360
     7  N   -0.497654
 Sum of Mulliken charges =  -1.00000

 Dipole moment (field-independent basis, Debye):
    X=            -10.4440    Y=             -0.0001    Z=              0.0066  Tot=             10.4440
 Quadrupole moment (field-independent basis, Debye-Ang):
   XX=            -92.1124   YY=            -35.4572   ZZ=            -35.4574
   XY=             -0.0002   XZ=              0.0049   YZ=              0.0000

  Exact polarizability:  87.762  -0.001  40.078   0.027  -0.000  40.074
 Approx polarizability: 108.241  -0.002  49.841   0.065  -0.000  49.837

 ******    2 imaginary frequencies (negative Signs) ******

                      1                      2                      3
                      A                      A                      A
 Frequencies --    -67.8590               -67.8304                88.3941
 Red. masses --      8.3300                 8.3244                 3.8428
 Frc consts  --      0.0226                 0.0226                 0.0177
 IR Inten    --      0.1127                 0.1133                11.8892

                      4                      5                      6
                      A                      A                      A
 Frequencies --     88.5102               135.7416               621.0249
 Red. masses --      3.8456                11.8658                 9.0795
 Frc consts  --      0.0178                 0.1288                 2.0632
 IR Inten    --     11.8842                51.4122               225.1541

                      7                      8                      9
                      A                      A                      A
 Frequencies --   1009.5312              1010.0201              1320.5542
 Red. masses --      1.1516                 1.1513                 1.0976
 Frc consts  --      0.6915                 0.6920                 1.1277
 IR Inten    --      0.2638                 0.2617                17.5413

                     10                     11                     12
                      A                      A                      A
 Frequencies --   1461.3702              1461.6136              2149.2019
 Red. masses --      1.0610                 1.0610                12.8345
 Frc consts  --      1.3350                 1.3355                34.9288
 IR Inten    --      7.6833                 7.6795                17.2774

                     13                     14                     15
                      A                      A                      A
 Frequencies --   3128.2739              3252.7851              3253.0940
 Red. masses --      1.0250                 1.1114                 1.1115
 Frc consts  --      5.9098                 6.9286                 6.9301
 IR Inten    --     12.7599                 0.2858                 0.2929

 - Thermochemistry -
 -------------------
 Temperature   298.150 Kelvin.  Pressure   1.00000 Atm.
 Atom     1 has atomic number  6 and mass  12.00000

 Molecular mass:    75.99540 amu.
 Principal axes and moments of inertia in atomic units:
                           1         2         3
     Eigenvalues --    11.514871590.770281590.77279
           X            1.00000  -0.00000   0.00013
           Y            0.00000   1.00000  -0.00173
           Z           -0.00013   0.00173   1.00000
 This molecule is an asymmetric top.
 Rotational symmetry number  1.
 Rotational temperatures (Kelvin)      7.52192     0.05445     0.05445
 Rotational constants (GHZ):         156.73134     1.13451     1.13451
    2 imaginary frequencies ignored.
 Zero-point vibrational energy     113526.3 (Joules/Mol)
                                   27.13344 (Kcal/Mol)
 Warning -- explicit consideration of   3 degrees of freedom as
           vibrations may cause significant error
 Vibrational temperatures:    127.18   127.35   195.30   893.52  1452.49
          (Kelvin)           1453.19  1899.98  2102.59  2102.94  3092.22
                             4500.89  4680.03  4680.48

 Zero-point correction=                           0.043240 (Hartree/Particle)
 Thermal correction to Energy=                    0.048497
 Thermal correction to Enthalpy=                  0.049441
 Thermal correction to Gibbs Free Energy=         0.013958
 Sum of electronic and zero-point Energies=           -592.951518
 Sum of electronic and thermal Energies=              -592.946261
 Sum of electronic and thermal Enthalpies=            -592.945317
 Sum of electronic and thermal Free Energies=         -592.980799

                     E (Thermal)             CV                S
                      KCal/Mol        Cal/Mol-Kelvin    Cal/Mol-Kelvin
 Total                   30.432             13.831             74.680
 Electronic               0.000              0.000              0.000
 Translational            0.889              2.981             38.900
 Rotational               0.889              2.981             24.881
 Vibrational             28.655              7.870             10.899
 Vibration     1          0.601              1.957              3.695
 Vibration     2          0.601              1.957              3.693
 Vibration     3          0.614              1.918              2.863

 Normal termination of Gaussian 16 at Sun Oct 13 09:52:14 2024.
