 Gaussian 16, Revision B.01,
 Gaussian 16:  ES64L-G16RevB.01 20-Dec-2017

 ---------------------------------------------------------------------
 #p b3lyp 6-31++g(d,p) scf=verytight NoSymm freq=noraman int=ultrafine
 ---------------------------------------------------------------------

 ------------------------
 RxCoord=3.99752 DE=45.54
 ------------------------
 Symbolic Z-matrix:
 Charge = -1 Multiplicity = 1

                          Input orientation:
 ---------------------------------------------------------------------
 Center     Atomic      Atomic             Coordinates (Angstroms)
 Number     Number       Type             X           Y           Z
 ---------------------------------------------------------------------
      1          6           0       -0.392949   -0.000006    0.001779
      2         17           0       -2.222181   -0.000006   -0.000087
      3          1           0       -0.058961    0.002353   -1.030402
      4          1           0       -0.060493    0.893280    0.520420
      5          1           0       -0.060704   -0.895616    0.516354
      6          6           0        2.540973    0.000035   -0.002582
      7          7           0        3.721498   -0.000011    0.000446
 ---------------------------------------------------------------------

 SCF Done:  E(RB3LYP) =  -592.994828342     A.U. after   12 cycles

 Alpha  occ. eigenvalues -- -101.41315 -14.09408 -10.10270  -9.95969  -9.32935
 Alpha  occ. eigenvalues --   -7.09241  -7.08398  -7.08398  -0.71875  -0.64702
 Alpha  occ. eigenvalues --   -0.54140  -0.30944  -0.30939  -0.27940  -0.18223
 Alpha  occ. eigenvalues --   -0.17756  -0.17755  -0.09616  -0.09616  -0.06857
 Alpha virt. eigenvalues --    0.10804   0.12592   0.14407   0.14412   0.17319
 Alpha virt. eigenvalues --    0.20152   0.20208   0.20208   0.22004   0.22020
 Alpha virt. eigenvalues --    0.23967   0.24849   0.24859   0.26978   0.27640

 Mulliken charges:
               1
     1  C   -0.437933
     2  Cl  -0.192461
     3  H    0.214837
     4  H    0.214143
     5  H    0.214118
     6  C   -0.515938
     7  N   -0.496767
 Sum of Mulliken charges =  -1.00000

 Dipole moment (field-independent basis, Debye):
    X=            -10.4999    Y=             -0.0001    Z=              0.0068  Tot=             10.4999
 Quadrupole moment (field-independent basis, Debye-Ang):
   XX=            -92.3567   YY=            -35.4595   ZZ=            -35.4594
   XY=              0.0002   XZ=              0.0057   YZ=             -0.0001

  Exact polarizability:  87.614   0.001  40.110   0.031   0.000  40.105
 Approx polarizability: 108.061   0.001  49.858   0.072   0.000  49.852

 ******    2 imaginary frequencies (negative Signs) ******

                      1                      2                      3
                      A                      A                      A
 Frequencies --    -65.9538               -65.8618                86.4513
 Red. masses --      8.2020                 8.2128                 3.8641
 Frc consts  --      0.0210                 0.0210                 0.0170
 IR Inten    --      0.1329                 0.1304                11.9082

                      4                      5                      6
                      A                      A                      A
 Frequencies --     86.7507               133.0020               622.1449
 Red. masses --      3.8639                11.8473                 9.0410
 Frc consts  --      0.0171                 0.1235                 2.0618
 IR Inten    --     11.9053                50.8990               221.2516

                      7                      8                      9
                      A                      A                      A
 Frequencies --   1008.9277              1009.5402              1321.6554
 Red. masses --      1.1522                 1.1520                 1.0983
 Frc consts  --      0.6911                 0.6917                 1.1303
 IR Inten    --      0.2684                 0.2681                17.2789

                     10                     11                     12
                      A                      A                      A
 Frequencies --   1461.7583              1461.8712              2148.6154
 Red. masses --      1.0609                 1.0609                12.8352
 Frc consts  --      1.3356                 1.3358                34.9117
 IR Inten    --      7.6993                 7.7137                17.3698

                     13                     14                     15
                      A                      A                      A
 Frequencies --   3127.8602              3251.5683              3253.0136
 Red. masses --      1.0250                 1.1114                 1.1114
 Frc consts  --      5.9085                 6.9233                 6.9294
 IR Inten    --     12.7765                 0.3083                 0.2876

 - Thermochemistry -
 -------------------
 Temperature   298.150 Kelvin.  Pressure   1.00000 Atm.
 Atom     1 has atomic number  6 and mass  12.00000

 Molecular mass:    75.99540 amu.
 Principal axes and moments of inertia in atomic units:
                           1         2         3
     Eigenvalues --    11.514601598.300351598.30317
           X            1.00000  -0.00000   0.00013
           Y            0.00000   1.00000  -0.00031
           Z           -0.00013   0.00031   1.00000
 This molecule is an asymmetric top.
 Rotational symmetry number  1.
 Rotational temperatures (Kelvin)      7.52209     0.05419     0.05419
 Rotational constants (GHZ):         156.73500     1.12916     1.12916
    2 imaginary frequencies ignored.
 Zero-point vibrational energy     113484.7 (Joules/Mol)
                                   27.12349 (Kcal/Mol)
 Warning -- explicit consideration of   3 degrees of freedom as
           vibrations may cause significant error
 Vibrational temperatures:    124.38   124.81   191.36   895.13  1451.62
          (Kelvin)           1452.50  1901.57  2103.14  2103.31  3091.38
                             4500.29  4678.28  4680.36

 Zero-point correction=                           0.043224 (Hartree/Particle)
 Thermal correction to Energy=                    0.048493
 Thermal correction to Enthalpy=                  0.049437
 Thermal correction to Gibbs Free Energy=         0.013892
 Sum of electronic and zero-point Energies=           -592.951604
 Sum of electronic and thermal Energies=              -592.946336
 Sum of electronic and thermal Enthalpies=            -592.945392
 Sum of electronic and thermal Free Energies=         -592.980936

                     E (Thermal)             CV                S
                      KCal/Mol        Cal/Mol-Kelvin    Cal/Mol-Kelvin
 Total                   30.430             13.835             74.809
 Electronic               0.000              0.000              0.000
 Translational            0.889              2.981             38.900
 Rotational               0.889              2.981             24.890
 Vibrational             28.652              7.873             11.020
 Vibration     1          0.601              1.959              3.739
 Vibration     2          0.601              1.958              3.732
 Vibration     3          0.613              1.920              2.902

 Normal termination of Gaussian 16 at Sun Oct 13 09:52:14 2024.
