 Gaussian 16, Revision B.01,
 Gaussian 16:  ES64L-G16RevB.01 20-Dec-2017

 ---------------------------------------------------------------------
 #p b3lyp 6-31++g(d,p) scf=verytight NoSymm freq=noraman int=ultrafine
 ---------------------------------------------------------------------

 ------------------------
 RxCoord=4.09750 DE=45.46
 ------------------------
 Symbolic Z-matrix:
 Charge = -1 Multiplicity = 1

                          Input orientation:
 ---------------------------------------------------------------------
 Center     Atomic      Atomic             Coordinates (Angstroms)
 Number     Number       Type             X           Y           Z
 ---------------------------------------------------------------------
      1          6           0       -0.397470   -0.000020    0.001744
      2         17           0       -2.226517    0.000002   -0.000072
      3          1           0       -0.062502    0.002289   -1.030507
      4          1           0       -0.065407    0.893236    0.520279
      5          1           0       -0.065040   -0.895676    0.516219
      6          6           0        2.549354    0.000050   -0.002547
      7          7           0        3.729938   -0.000020    0.000437
 ---------------------------------------------------------------------

 SCF Done:  E(RB3LYP) =  -592.994891225     A.U. after   12 cycles

 Alpha  occ. eigenvalues -- -101.41368 -14.09397 -10.10319  -9.95965  -9.32987
 Alpha  occ. eigenvalues --   -7.09294  -7.08449  -7.08449  -0.71925  -0.64688
 Alpha  occ. eigenvalues --   -0.54183  -0.30994  -0.30975  -0.27983  -0.18215
 Alpha  occ. eigenvalues --   -0.17800  -0.17798  -0.09602  -0.09602  -0.06847
 Alpha virt. eigenvalues --    0.10785   0.12557   0.14391   0.14396   0.17318
 Alpha virt. eigenvalues --    0.20116   0.20188   0.20188   0.21992   0.22009
 Alpha virt. eigenvalues --    0.23937   0.24831   0.24842   0.26959   0.27651

 Mulliken charges:
               1
     1  C   -0.438541
     2  Cl  -0.192396
     3  H    0.215004
     4  H    0.214181
     5  H    0.214209
     6  C   -0.516557
     7  N   -0.495899
 Sum of Mulliken charges =  -1.00000

 Dipole moment (field-independent basis, Debye):
    X=            -10.5560    Y=             -0.0001    Z=              0.0066  Tot=             10.5560
 Quadrupole moment (field-independent basis, Debye-Ang):
   XX=            -92.6015   YY=            -35.4611   ZZ=            -35.4620
   XY=             -0.0005   XZ=              0.0042   YZ=              0.0001

  Exact polarizability:  87.463  -0.002  40.141   0.025  -0.000  40.137
 Approx polarizability: 107.876  -0.004  49.873   0.062  -0.000  49.869

 ******    2 imaginary frequencies (negative Signs) ******

                      1                      2                      3
                      A                      A                      A
 Frequencies --    -64.1404               -64.0812                84.6822
 Red. masses --      8.0740                 8.1005                 3.8874
 Frc consts  --      0.0196                 0.0196                 0.0164
 IR Inten    --      0.1549                 0.1495                11.9215

                      4                      5                      6
                      A                      A                      A
 Frequencies --     84.8023               130.2910               623.3734
 Red. masses --      3.8834                11.8289                 9.0020
 Frc consts  --      0.0165                 0.1183                 2.0610
 IR Inten    --     11.9261                50.3920               217.3899

                      7                      8                      9
                      A                      A                      A
 Frequencies --   1008.6185              1008.9706              1322.8126
 Red. masses --      1.1529                 1.1526                 1.0990
 Frc consts  --      0.6910                 0.6913                 1.1330
 IR Inten    --      0.2763                 0.2721                17.0104

                     10                     11                     12
                      A                      A                      A
 Frequencies --   1461.8691              1462.4528              2148.0706
 Red. masses --      1.0608                 1.0609                12.8359
 Frc consts  --      1.3357                 1.3369                34.8959
 IR Inten    --      7.7245                 7.7378                17.4603

                     13                     14                     15
                      A                      A                      A
 Frequencies --   3127.3018              3250.5431              3252.3842
 Red. masses --      1.0251                 1.1113                 1.1114
 Frc consts  --      5.9066                 6.9185                 6.9268
 IR Inten    --     12.7944                 0.3039                 0.3136

 - Thermochemistry -
 -------------------
 Temperature   298.150 Kelvin.  Pressure   1.00000 Atm.
 Atom     1 has atomic number  6 and mass  12.00000

 Molecular mass:    75.99540 amu.
 Principal axes and moments of inertia in atomic units:
                           1         2         3
     Eigenvalues --    11.514441605.840821605.84401
           X            1.00000   0.00000   0.00014
           Y            0.00000   0.99998  -0.00687
           Z           -0.00014   0.00687   0.99998
 This molecule is an asymmetric top.
 Rotational symmetry number  1.
 Rotational temperatures (Kelvin)      7.52220     0.05394     0.05394
 Rotational constants (GHZ):         156.73723     1.12386     1.12386
    2 imaginary frequencies ignored.
 Zero-point vibrational energy     113442.9 (Joules/Mol)
                                   27.11350 (Kcal/Mol)
 Warning -- explicit consideration of   3 degrees of freedom as
           vibrations may cause significant error
 Vibrational temperatures:    121.84   122.01   187.46   896.90  1451.18
          (Kelvin)           1451.68  1903.23  2103.30  2104.14  3090.59
                             4499.49  4676.81  4679.46

 Zero-point correction=                           0.043208 (Hartree/Particle)
 Thermal correction to Energy=                    0.048488
 Thermal correction to Enthalpy=                  0.049432
 Thermal correction to Gibbs Free Energy=         0.013825
 Sum of electronic and zero-point Energies=           -592.951683
 Sum of electronic and thermal Energies=              -592.946403
 Sum of electronic and thermal Enthalpies=            -592.945459
 Sum of electronic and thermal Free Energies=         -592.981066

                     E (Thermal)             CV                S
                      KCal/Mol        Cal/Mol-Kelvin    Cal/Mol-Kelvin
 Total                   30.427             13.837             74.942
 Electronic               0.000              0.000              0.000
 Translational            0.889              2.981             38.900
 Rotational               0.889              2.981             24.899
 Vibrational             28.649              7.876             11.143
 Vibration     1          0.601              1.960              3.779
 Vibration     2          0.601              1.960              3.777
 Vibration     3          0.612              1.923              2.942

 Normal termination of Gaussian 16 at Sun Oct 13 09:52:16 2024.
