 Gaussian 16, Revision B.01,
 Gaussian 16:  ES64L-G16RevB.01 20-Dec-2017

 ---------------------------------------------------------------------
 #p b3lyp 6-31++g(d,p) scf=verytight NoSymm freq=noraman int=ultrafine
 ---------------------------------------------------------------------

 ------------------------
 RxCoord=4.19746 DE=45.37
 ------------------------
 Symbolic Z-matrix:
 Charge = -1 Multiplicity = 1

                          Input orientation:
 ---------------------------------------------------------------------
 Center     Atomic      Atomic             Coordinates (Angstroms)
 Number     Number       Type             X           Y           Z
 ---------------------------------------------------------------------
      1          6           0       -0.401963    0.000010    0.001763
      2         17           0       -2.230857   -0.000013   -0.000109
      3          1           0       -0.068034    0.002396   -1.030327
      4          1           0       -0.068553    0.893339    0.520446
      5          1           0       -0.069235   -0.895563    0.516398
      6          6           0        2.557731    0.000017   -0.002554
      7          7           0        3.738373   -0.000003    0.000481
 ---------------------------------------------------------------------

 SCF Done:  E(RB3LYP) =  -592.994947841     A.U. after   12 cycles

 Alpha  occ. eigenvalues -- -101.41419 -14.09386 -10.10366  -9.95961  -9.33037
 Alpha  occ. eigenvalues --   -7.09345  -7.08499  -7.08499  -0.71974  -0.64674
 Alpha  occ. eigenvalues --   -0.54226  -0.31032  -0.31023  -0.28025  -0.18207
 Alpha  occ. eigenvalues --   -0.17841  -0.17841  -0.09589  -0.09589  -0.06838
 Alpha virt. eigenvalues --    0.10766   0.12522   0.14376   0.14380   0.17318
 Alpha virt. eigenvalues --    0.20080   0.20169   0.20169   0.21980   0.21996
 Alpha virt. eigenvalues --    0.23907   0.24814   0.24824   0.26940   0.27664

 Mulliken charges:
               1
     1  C   -0.439105
     2  Cl  -0.192362
     3  H    0.214981
     4  H    0.214381
     5  H    0.214315
     6  C   -0.517154
     7  N   -0.495057
 Sum of Mulliken charges =  -1.00000

 Dipole moment (field-independent basis, Debye):
    X=            -10.6117    Y=              0.0000    Z=              0.0067  Tot=             10.6117
 Quadrupole moment (field-independent basis, Debye-Ang):
   XX=            -92.8478   YY=            -35.4638   ZZ=            -35.4632
   XY=              0.0008   XZ=              0.0064   YZ=             -0.0002

  Exact polarizability:  87.316   0.003  40.174   0.035   0.001  40.167
 Approx polarizability: 107.698   0.005  49.891   0.079   0.001  49.882

 ******    2 imaginary frequencies (negative Signs) ******

                      1                      2                      3
                      A                      A                      A
 Frequencies --    -62.4405               -62.2148                82.5951
 Red. masses --      7.9341                 7.9810                 3.9140
 Frc consts  --      0.0182                 0.0182                 0.0157
 IR Inten    --      0.1831                 0.1715                11.9342

                      4                      5                      6
                      A                      A                      A
 Frequencies --     83.2324               127.6010               624.5097
 Red. masses --      3.9062                11.8123                 8.9658
 Frc consts  --      0.0159                 0.1133                 2.0602
 IR Inten    --     11.9390                49.9146               213.6762

                      7                      8                      9
                      A                      A                      A
 Frequencies --   1007.9314              1008.7482              1323.8961
 Red. masses --      1.1535                 1.1533                 1.0996
 Frc consts  --      0.6905                 0.6914                 1.1355
 IR Inten    --      0.2783                 0.2813                16.7585

                     10                     11                     12
                      A                      A                      A
 Frequencies --   1462.1696              1462.7827              2147.5351
 Red. masses --      1.0608                 1.0608                12.8366
 Frc consts  --      1.3362                 1.3374                34.8803
 IR Inten    --      7.7312                 7.7784                17.5477

                     13                     14                     15
                      A                      A                      A
 Frequencies --   3126.8354              3248.8069              3252.8531
 Red. masses --      1.0251                 1.1113                 1.1113
 Frc consts  --      5.9052                 6.9109                 6.9283
 IR Inten    --     12.8154                 0.3317                 0.3050

 - Thermochemistry -
 -------------------
 Temperature   298.150 Kelvin.  Pressure   1.00000 Atm.
 Atom     1 has atomic number  6 and mass  12.00000

 Molecular mass:    75.99540 amu.
 Principal axes and moments of inertia in atomic units:
                           1         2         3
     Eigenvalues --    11.514341613.400031613.40319
           X            1.00000  -0.00000   0.00012
           Y            0.00000   1.00000   0.00107
           Z           -0.00012  -0.00107   1.00000
 This molecule is an asymmetric top.
 Rotational symmetry number  1.
 Rotational temperatures (Kelvin)      7.52226     0.05368     0.05368
 Rotational constants (GHZ):         156.73853     1.11859     1.11859
    2 imaginary frequencies ignored.
 Zero-point vibrational energy     113403.0 (Joules/Mol)
                                   27.10396 (Kcal/Mol)
 Warning -- explicit consideration of   3 degrees of freedom as
           vibrations may cause significant error
 Vibrational temperatures:    118.84   119.75   183.59   898.53  1450.19
          (Kelvin)           1451.36  1904.79  2103.74  2104.62  3089.82
                             4498.82  4674.31  4680.13

 Zero-point correction=                           0.043193 (Hartree/Particle)
 Thermal correction to Energy=                    0.048485
 Thermal correction to Enthalpy=                  0.049429
 Thermal correction to Gibbs Free Energy=         0.013758
 Sum of electronic and zero-point Energies=           -592.951755
 Sum of electronic and thermal Energies=              -592.946463
 Sum of electronic and thermal Enthalpies=            -592.945519
 Sum of electronic and thermal Free Energies=         -592.981190

                     E (Thermal)             CV                S
                      KCal/Mol        Cal/Mol-Kelvin    Cal/Mol-Kelvin
 Total                   30.425             13.840             75.075
 Electronic               0.000              0.000              0.000
 Translational            0.889              2.981             38.900
 Rotational               0.889              2.981             24.909
 Vibrational             28.647              7.879             11.267
 Vibration     1          0.600              1.961              3.828
 Vibration     2          0.600              1.961              3.813
 Vibration     3          0.611              1.926              2.982

 Normal termination of Gaussian 16 at Sun Oct 13 09:52:24 2024.
