 Gaussian 16, Revision B.01,
 Gaussian 16:  ES64L-G16RevB.01 20-Dec-2017

 ---------------------------------------------------------------------
 #p b3lyp 6-31++g(d,p) scf=verytight NoSymm freq=noraman int=ultrafine
 ---------------------------------------------------------------------

 ------------------------
 RxCoord=4.29738 DE=45.29
 ------------------------
 Symbolic Z-matrix:
 Charge = -1 Multiplicity = 1

                          Input orientation:
 ---------------------------------------------------------------------
 Center     Atomic      Atomic             Coordinates (Angstroms)
 Number     Number       Type             X           Y           Z
 ---------------------------------------------------------------------
      1          6           0       -0.406476   -0.000043    0.001569
      2         17           0       -2.235173    0.000014   -0.000061
      3          1           0       -0.070145    0.002200   -1.030808
      4          1           0       -0.074941    0.893172    0.519966
      5          1           0       -0.073777   -0.895763    0.515914
      6          6           0        2.566094    0.000074   -0.002311
      7          7           0        3.746791   -0.000034    0.000422
 ---------------------------------------------------------------------

 SCF Done:  E(RB3LYP) =  -592.994996410     A.U. after   12 cycles

 Alpha  occ. eigenvalues -- -101.41470 -14.09375 -10.10414  -9.95957  -9.33087
 Alpha  occ. eigenvalues --   -7.09396  -7.08548  -7.08548  -0.72023  -0.64660
 Alpha  occ. eigenvalues --   -0.54269  -0.31092  -0.31052  -0.28067  -0.18199
 Alpha  occ. eigenvalues --   -0.17885  -0.17881  -0.09575  -0.09575  -0.06829
 Alpha virt. eigenvalues --    0.10747   0.12487   0.14359   0.14365   0.17318
 Alpha virt. eigenvalues --    0.20045   0.20149   0.20149   0.21968   0.21984
 Alpha virt. eigenvalues --    0.23878   0.24796   0.24806   0.26921   0.27674

 Mulliken charges:
               1
     1  C   -0.439645
     2  Cl  -0.192282
     3  H    0.215259
     4  H    0.214289
     5  H    0.214390
     6  C   -0.517774
     7  N   -0.494237
 Sum of Mulliken charges =  -1.00000

 Dipole moment (field-independent basis, Debye):
    X=            -10.6673    Y=             -0.0002    Z=              0.0059  Tot=             10.6673
 Quadrupole moment (field-independent basis, Debye-Ang):
   XX=            -93.0948   YY=            -35.4642   ZZ=            -35.4664
   XY=             -0.0014   XZ=              0.0012   YZ=              0.0004

  Exact polarizability:  87.167  -0.006  40.202   0.015  -0.001  40.202
 Approx polarizability: 107.518  -0.011  49.902   0.043  -0.001  49.902

 ******    2 imaginary frequencies (negative Signs) ******

                      1                      2                      3
                      A                      A                      A
 Frequencies --    -60.8374               -60.5215                80.7753
 Red. masses --      7.7771                 7.8687                 3.9485
 Frc consts  --      0.0170                 0.0170                 0.0152
 IR Inten    --      0.2182                 0.1946                11.9336

                      4                      5                      6
                      A                      A                      A
 Frequencies --     81.3974               124.9457               625.7105
 Red. masses --      3.9276                11.7947                 8.9308
 Frc consts  --      0.0153                 0.1085                 2.0601
 IR Inten    --     11.9583                49.4474               210.0468

                      7                      8                      9
                      A                      A                      A
 Frequencies --   1007.8452              1008.1052              1324.9874
 Red. masses --      1.1540                 1.1540                 1.1002
 Frc consts  --      0.6906                 0.6910                 1.1380
 IR Inten    --      0.2830                 0.2886                16.5059

                     10                     11                     12
                      A                      A                      A
 Frequencies --   1462.0430              1463.5491              2147.0311
 Red. masses --      1.0606                 1.0608                12.8372
 Frc consts  --      1.3358                 1.3387                34.8656
 IR Inten    --      7.7444                 7.8101                17.6320

                     13                     14                     15
                      A                      A                      A
 Frequencies --   3126.2858              3246.9305              3253.3825
 Red. masses --      1.0252                 1.1112                 1.1114
 Frc consts  --      5.9036                 6.9021                 6.9307
 IR Inten    --     12.8274                 0.3398                 0.3309

 - Thermochemistry -
 -------------------
 Temperature   298.150 Kelvin.  Pressure   1.00000 Atm.
 Atom     1 has atomic number  6 and mass  12.00000

 Molecular mass:    75.99540 amu.
 Principal axes and moments of inertia in atomic units:
                           1         2         3
     Eigenvalues --    11.514441620.957131620.96062
           X            1.00000   0.00000   0.00013
           Y           -0.00000   0.99993  -0.01176
           Z           -0.00013   0.01176   0.99993
 This molecule is an asymmetric top.
 Rotational symmetry number  1.
 Rotational temperatures (Kelvin)      7.52220     0.05343     0.05343
 Rotational constants (GHZ):         156.73715     1.11338     1.11338
    2 imaginary frequencies ignored.
 Zero-point vibrational energy     113364.0 (Joules/Mol)
                                   27.09466 (Kcal/Mol)
 Warning -- explicit consideration of   3 degrees of freedom as
           vibrations may cause significant error
 Vibrational temperatures:    116.22   117.11   179.77   900.26  1450.06
          (Kelvin)           1450.44  1906.36  2103.55  2105.72  3089.10
                             4498.03  4671.61  4680.89

 Zero-point correction=                           0.043178 (Hartree/Particle)
 Thermal correction to Energy=                    0.048481
 Thermal correction to Enthalpy=                  0.049425
 Thermal correction to Gibbs Free Energy=         0.013691
 Sum of electronic and zero-point Energies=           -592.951818
 Sum of electronic and thermal Energies=              -592.946515
 Sum of electronic and thermal Enthalpies=            -592.945571
 Sum of electronic and thermal Free Energies=         -592.981306

                     E (Thermal)             CV                S
                      KCal/Mol        Cal/Mol-Kelvin    Cal/Mol-Kelvin
 Total                   30.422             13.843             75.210
 Electronic               0.000              0.000              0.000
 Translational            0.889              2.981             38.900
 Rotational               0.889              2.981             24.918
 Vibrational             28.645              7.881             11.393
 Vibration     1          0.600              1.962              3.872
 Vibration     2          0.600              1.962              3.857
 Vibration     3          0.610              1.928              3.022

 Normal termination of Gaussian 16 at Sun Oct 13 09:52:25 2024.
