 Gaussian 16, Revision B.01,
 Gaussian 16:  ES64L-G16RevB.01 20-Dec-2017

 ---------------------------------------------------------------------
 #p b3lyp 6-31++g(d,p) scf=verytight NoSymm freq=noraman int=ultrafine
 ---------------------------------------------------------------------

 ------------------------
 RxCoord=4.39716 DE=45.21
 ------------------------
 Symbolic Z-matrix:
 Charge = -1 Multiplicity = 1

                          Input orientation:
 ---------------------------------------------------------------------
 Center     Atomic      Atomic             Coordinates (Angstroms)
 Number     Number       Type             X           Y           Z
 ---------------------------------------------------------------------
      1          6           0       -0.410983    0.000035    0.001615
      2         17           0       -2.239463   -0.000027   -0.000160
      3          1           0       -0.077912    0.002497   -1.030343
      4          1           0       -0.076354    0.893471    0.520481
      5          1           0       -0.077883   -0.895483    0.516422
      6          6           0        2.574432   -0.000010   -0.002310
      7          7           0        3.755177    0.000010    0.000523
 ---------------------------------------------------------------------

 SCF Done:  E(RB3LYP) =  -592.995038227     A.U. after   12 cycles

 Alpha  occ. eigenvalues -- -101.41520 -14.09364 -10.10461  -9.95953  -9.33136
 Alpha  occ. eigenvalues --   -7.09446  -7.08597  -7.08597  -0.72073  -0.64646
 Alpha  occ. eigenvalues --   -0.54312  -0.31133  -0.31100  -0.28109  -0.18190
 Alpha  occ. eigenvalues --   -0.17925  -0.17923  -0.09562  -0.09562  -0.06819
 Alpha virt. eigenvalues --    0.10728   0.12453   0.14344   0.14348   0.17318
 Alpha virt. eigenvalues --    0.20011   0.20130   0.20130   0.21957   0.21970
 Alpha virt. eigenvalues --    0.23848   0.24779   0.24788   0.26901   0.27689

 Mulliken charges:
               1
     1  C   -0.440158
     2  Cl  -0.192210
     3  H    0.215026
     4  H    0.214645
     5  H    0.214511
     6  C   -0.518376
     7  N   -0.493439
 Sum of Mulliken charges =  -1.00000

 Dipole moment (field-independent basis, Debye):
    X=            -10.7226    Y=              0.0001    Z=              0.0061  Tot=             10.7226
 Quadrupole moment (field-independent basis, Debye-Ang):
   XX=            -93.3427   YY=            -35.4678   ZZ=            -35.4660
   XY=              0.0017   XZ=              0.0070   YZ=             -0.0005

  Exact polarizability:  87.017   0.007  40.238   0.043   0.001  40.228
 Approx polarizability: 107.336   0.012  49.925   0.089   0.002  49.910

 ******    2 imaginary frequencies (negative Signs) ******

                      1                      2                      3
                      A                      A                      A
 Frequencies --    -59.5120               -58.9406                78.4689
 Red. masses --      7.6138                 7.7474                 3.9839
 Frc consts  --      0.0159                 0.0159                 0.0145
 IR Inten    --      0.2607                 0.2216                11.9340

                      4                      5                      6
                      A                      A                      A
 Frequencies --     79.8445               122.3094               626.9217
 Red. masses --      3.9549                11.7809                 8.8987
 Frc consts  --      0.0149                 0.1038                 2.0607
 IR Inten    --     11.9642                49.0041               206.5299

                      7                      8                      9
                      A                      A                      A
 Frequencies --   1006.9474              1008.3127              1326.0181
 Red. masses --      1.1547                 1.1545                 1.1008
 Frc consts  --      0.6898                 0.6916                 1.1404
 IR Inten    --      0.2852                 0.2964                16.2695

                     10                     11                     12
                      A                      A                      A
 Frequencies --   1462.2345              1463.9376              2146.5733
 Red. masses --      1.0606                 1.0607                12.8378
 Frc consts  --      1.3360                 1.3394                34.8524
 IR Inten    --      7.7466                 7.8490                17.7146

                     13                     14                     15
                      A                      A                      A
 Frequencies --   3125.7869              3244.9574              3254.4850
 Red. masses --      1.0253                 1.1111                 1.1112
 Frc consts  --      5.9025                 6.8934                 6.9346
 IR Inten    --     12.8620                 0.3659                 0.3289

 - Thermochemistry -
 -------------------
 Temperature   298.150 Kelvin.  Pressure   1.00000 Atm.
 Atom     1 has atomic number  6 and mass  12.00000

 Molecular mass:    75.99540 amu.
 Principal axes and moments of inertia in atomic units:
                           1         2         3
     Eigenvalues --    11.514961628.502381628.50559
           X            1.00000  -0.00001   0.00009
           Y            0.00001   0.99983  -0.01823
           Z           -0.00009   0.01823   0.99983
 This molecule is an asymmetric top.
 Rotational symmetry number  1.
 Rotational temperatures (Kelvin)      7.52186     0.05319     0.05319
 Rotational constants (GHZ):         156.73013     1.10822     1.10822
    2 imaginary frequencies ignored.
 Zero-point vibrational energy     113327.0 (Joules/Mol)
                                   27.08581 (Kcal/Mol)
 Warning -- explicit consideration of   3 degrees of freedom as
           vibrations may cause significant error
 Vibrational temperatures:    112.90   114.88   175.98   902.00  1448.77
          (Kelvin)           1450.74  1907.84  2103.83  2106.28  3088.44
                             4497.31  4668.77  4682.48

 Zero-point correction=                           0.043164 (Hartree/Particle)
 Thermal correction to Energy=                    0.048479
 Thermal correction to Enthalpy=                  0.049423
 Thermal correction to Gibbs Free Energy=         0.013620
 Sum of electronic and zero-point Energies=           -592.951874
 Sum of electronic and thermal Energies=              -592.946559
 Sum of electronic and thermal Enthalpies=            -592.945615
 Sum of electronic and thermal Free Energies=         -592.981418

                     E (Thermal)             CV                S
                      KCal/Mol        Cal/Mol-Kelvin    Cal/Mol-Kelvin
 Total                   30.421             13.845             75.354
 Electronic               0.000              0.000              0.000
 Translational            0.889              2.981             38.900
 Rotational               0.889              2.981             24.927
 Vibrational             28.644              7.883             11.527
 Vibration     1          0.600              1.964              3.929
 Vibration     2          0.600              1.963              3.895
 Vibration     3          0.610              1.931              3.064

 Normal termination of Gaussian 16 at Sun Oct 13 09:52:26 2024.
