 Gaussian 16, Revision B.01,
 Gaussian 16:  ES64L-G16RevB.01 20-Dec-2017

 ---------------------------------------------------------------------
 #p b3lyp 6-31++g(d,p) scf=verytight NoSymm freq=noraman int=ultrafine
 ---------------------------------------------------------------------

 ------------------------
 RxCoord=4.49673 DE=45.14
 ------------------------
 Symbolic Z-matrix:
 Charge = -1 Multiplicity = 1

                          Input orientation:
 ---------------------------------------------------------------------
 Center     Atomic      Atomic             Coordinates (Angstroms)
 Number     Number       Type             X           Y           Z
 ---------------------------------------------------------------------
      1          6           0       -0.415472   -0.000030    0.001316
      2         17           0       -2.243744    0.000013   -0.000089
      3          1           0       -0.078871    0.002199   -1.031278
      4          1           0       -0.083846    0.893133    0.519643
      5          1           0       -0.082567   -0.895793    0.515618
      6          6           0        2.582744    0.000074   -0.001885
      7          7           0        3.763536   -0.000037    0.000423
 ---------------------------------------------------------------------

 SCF Done:  E(RB3LYP) =  -592.995074831     A.U. after   12 cycles

 Alpha  occ. eigenvalues -- -101.41569 -14.09353 -10.10509  -9.95949  -9.33184
 Alpha  occ. eigenvalues --   -7.09496  -7.08645  -7.08645  -0.72121  -0.64633
 Alpha  occ. eigenvalues --   -0.54354  -0.31183  -0.31138  -0.28150  -0.18181
 Alpha  occ. eigenvalues --   -0.17967  -0.17963  -0.09549  -0.09549  -0.06809
 Alpha virt. eigenvalues --    0.10709   0.12419   0.14328   0.14332   0.17318
 Alpha virt. eigenvalues --    0.19978   0.20111   0.20111   0.21944   0.21958
 Alpha virt. eigenvalues --    0.23818   0.24762   0.24770   0.26882   0.27698

 Mulliken charges:
               1
     1  C   -0.440636
     2  Cl  -0.192103
     3  H    0.215348
     4  H    0.214482
     5  H    0.214575
     6  C   -0.518995
     7  N   -0.492671
 Sum of Mulliken charges =  -1.00000

 Dipole moment (field-independent basis, Debye):
    X=            -10.7775    Y=             -0.0002    Z=              0.0048  Tot=             10.7775
 Quadrupole moment (field-independent basis, Debye-Ang):
   XX=            -93.5905   YY=            -35.4673   ZZ=            -35.4697
   XY=             -0.0015   XZ=             -0.0011   YZ=              0.0004

  Exact polarizability:  86.872  -0.007  40.263   0.009  -0.001  40.265
 Approx polarizability: 107.161  -0.012  49.931   0.031  -0.002  49.935

 ******    2 imaginary frequencies (negative Signs) ******

                      1                      2                      3
                      A                      A                      A
 Frequencies --    -58.0743               -57.5727                76.9457
 Red. masses --      7.4815                 7.6102                 4.0177
 Frc consts  --      0.0149                 0.0149                 0.0140
 IR Inten    --      0.2969                 0.2566                11.9318

                      4                      5                      6
                      A                      A                      A
 Frequencies --     77.8414               119.7313               628.1004
 Red. masses --      3.9852                11.7648                 8.8666
 Frc consts  --      0.0142                 0.0994                 2.0609
 IR Inten    --     11.9713                48.5723               203.1198

                      7                      8                      9
                      A                      A                      A
 Frequencies --   1007.1195              1007.6605              1327.0954
 Red. masses --      1.1550                 1.1552                 1.1014
 Frc consts  --      0.6902                 0.6911                 1.1429
 IR Inten    --      0.2906                 0.3032                16.0330

                     10                     11                     12
                      A                      A                      A
 Frequencies --   1462.4987              1464.3112              2146.1369
 Red. masses --      1.0605                 1.0607                12.8383
 Frc consts  --      1.3364                 1.3400                34.8397
 IR Inten    --      7.7750                 7.8612                17.7935

                     13                     14                     15
                      A                      A                      A
 Frequencies --   3125.3359              3244.7694              3253.1259
 Red. masses --      1.0253                 1.1111                 1.1113
 Frc consts  --      5.9007                 6.8922                 6.9293
 IR Inten    --     12.8920                 0.3688                 0.3479

 - Thermochemistry -
 -------------------
 Temperature   298.150 Kelvin.  Pressure   1.00000 Atm.
 Atom     1 has atomic number  6 and mass  12.00000

 Molecular mass:    75.99540 amu.
 Principal axes and moments of inertia in atomic units:
                           1         2         3
     Eigenvalues --    11.515471636.046071636.04843
           X            1.00000  -0.00000   0.00009
           Y           -0.00000   0.99742   0.07181
           Z           -0.00009  -0.07181   0.99742
 This molecule is an asymmetric top.
 Rotational symmetry number  1.
 Rotational temperatures (Kelvin)      7.52153     0.05294     0.05294
 Rotational constants (GHZ):         156.72315     1.10311     1.10311
    2 imaginary frequencies ignored.
 Zero-point vibrational energy     113290.4 (Joules/Mol)
                                   27.07705 (Kcal/Mol)
 Warning -- explicit consideration of   3 degrees of freedom as
           vibrations may cause significant error
 Vibrational temperatures:    110.71   112.00   172.27   903.70  1449.02
          (Kelvin)           1449.80  1909.39  2104.21  2106.82  3087.81
                             4496.66  4668.50  4680.52

 Zero-point correction=                           0.043150 (Hartree/Particle)
 Thermal correction to Energy=                    0.048476
 Thermal correction to Enthalpy=                  0.049420
 Thermal correction to Gibbs Free Energy=         0.013552
 Sum of electronic and zero-point Energies=           -592.951925
 Sum of electronic and thermal Energies=              -592.946599
 Sum of electronic and thermal Enthalpies=            -592.945654
 Sum of electronic and thermal Free Energies=         -592.981522

                     E (Thermal)             CV                S
                      KCal/Mol        Cal/Mol-Kelvin    Cal/Mol-Kelvin
 Total                   30.419             13.847             75.491
 Electronic               0.000              0.000              0.000
 Translational            0.889              2.981             38.900
 Rotational               0.889              2.981             24.936
 Vibrational             28.642              7.885             11.655
 Vibration     1          0.599              1.965              3.967
 Vibration     2          0.599              1.964              3.945
 Vibration     3          0.609              1.933              3.105

 Normal termination of Gaussian 16 at Sun Oct 13 09:52:26 2024.
