 Gaussian 16, Revision B.01,
 Gaussian 16:  ES64L-G16RevB.01 20-Dec-2017

 ---------------------------------------------------------------------
 #p b3lyp 6-31++g(d,p) scf=verytight NoSymm freq=noraman int=ultrafine
 ---------------------------------------------------------------------

 ------------------------
 RxCoord=4.59635 DE=45.06
 ------------------------
 Symbolic Z-matrix:
 Charge = -1 Multiplicity = 1

                          Input orientation:
 ---------------------------------------------------------------------
 Center     Atomic      Atomic             Coordinates (Angstroms)
 Number     Number       Type             X           Y           Z
 ---------------------------------------------------------------------
      1          6           0       -0.419932   -0.000002    0.001193
      2         17           0       -2.248068   -0.000011   -0.000160
      3          1           0       -0.085697    0.002399   -1.030940
      4          1           0       -0.085841    0.893415    0.519951
      5          1           0       -0.086439   -0.895602    0.515850
      6          6           0        2.591085    0.000021   -0.001714
      7          7           0        3.771921   -0.000005    0.000497
 ---------------------------------------------------------------------

 SCF Done:  E(RB3LYP) =  -592.995109542     A.U. after   12 cycles

 Alpha  occ. eigenvalues -- -101.41618 -14.09343 -10.10556  -9.95945  -9.33233
 Alpha  occ. eigenvalues --   -7.09545  -7.08692  -7.08692  -0.72168  -0.64620
 Alpha  occ. eigenvalues --   -0.54397  -0.31209  -0.31196  -0.28193  -0.18173
 Alpha  occ. eigenvalues --   -0.18007  -0.18006  -0.09536  -0.09536  -0.06800
 Alpha virt. eigenvalues --    0.10691   0.12384   0.14313   0.14316   0.17317
 Alpha virt. eigenvalues --    0.19944   0.20092   0.20092   0.21934   0.21945
 Alpha virt. eigenvalues --    0.23789   0.24744   0.24751   0.26862   0.27712

 Mulliken charges:
               1
     1  C   -0.441099
     2  Cl  -0.192002
     3  H    0.215193
     4  H    0.214736
     5  H    0.214698
     6  C   -0.519598
     7  N   -0.491928
 Sum of Mulliken charges =  -1.00000

 Dipole moment (field-independent basis, Debye):
    X=            -10.8319    Y=             -0.0000    Z=              0.0044  Tot=             10.8319
 Quadrupole moment (field-independent basis, Debye-Ang):
   XX=            -93.8391   YY=            -35.4706   ZZ=            -35.4700
   XY=              0.0006   XZ=              0.0025   YZ=             -0.0002

  Exact polarizability:  86.737   0.003  40.298   0.030   0.001  40.291
 Approx polarizability: 106.999   0.004  49.953   0.062   0.001  49.942

 ******    2 imaginary frequencies (negative Signs) ******

                      1                      2                      3
                      A                      A                      A
 Frequencies --    -56.5732               -56.1839                75.3080
 Red. masses --      7.3776                 7.4648                 4.0425
 Frc consts  --      0.0139                 0.0139                 0.0135
 IR Inten    --      0.3275                 0.2971                11.9397

                      4                      5                      6
                      A                      A                      A
 Frequencies --     76.2381               117.1750               629.1188
 Red. masses --      4.0219                11.7518                 8.8337
 Frc consts  --      0.0138                 0.0951                 2.0600
 IR Inten    --     11.9639                48.1640               199.8080

                      7                      8                      9
                      A                      A                      A
 Frequencies --   1006.5527              1007.6162              1328.1623
 Red. masses --      1.1558                 1.1555                 1.1020
 Frc consts  --      0.6899                 0.6912                 1.1453
 IR Inten    --      0.3004                 0.3061                15.8071

                     10                     11                     12
                      A                      A                      A
 Frequencies --   1463.3155              1464.1365              2145.7182
 Red. masses --      1.0605                 1.0606                12.8389
 Frc consts  --      1.3379                 1.3396                34.8275
 IR Inten    --      7.8137                 7.8656                17.8704

                     13                     14                     15
                      A                      A                      A
 Frequencies --   3124.9067              3245.5043              3250.6169
 Red. masses --      1.0253                 1.1112                 1.1112
 Frc consts  --      5.8987                 6.8961                 6.9181
 IR Inten    --     12.9312                 0.3691                 0.3447

 - Thermochemistry -
 -------------------
 Temperature   298.150 Kelvin.  Pressure   1.00000 Atm.
 Atom     1 has atomic number  6 and mass  12.00000

 Molecular mass:    75.99540 amu.
 Principal axes and moments of inertia in atomic units:
                           1         2         3
     Eigenvalues --    11.515541643.647151643.65062
           X            1.00000  -0.00000   0.00005
           Y            0.00000   0.99791  -0.06459
           Z           -0.00005   0.06459   0.99791
 This molecule is an asymmetric top.
 Rotational symmetry number  1.
 Rotational temperatures (Kelvin)      7.52148     0.05270     0.05270
 Rotational constants (GHZ):         156.72226     1.09801     1.09801
    2 imaginary frequencies ignored.
 Zero-point vibrational energy     113252.7 (Joules/Mol)
                                   27.06804 (Kcal/Mol)
 Warning -- explicit consideration of   3 degrees of freedom as
           vibrations may cause significant error
 Vibrational temperatures:    108.35   109.69   168.59   905.16  1448.20
          (Kelvin)           1449.73  1910.93  2105.38  2106.57  3087.21
                             4496.04  4669.56  4676.91

 Zero-point correction=                           0.043136 (Hartree/Particle)
 Thermal correction to Energy=                    0.048473
 Thermal correction to Enthalpy=                  0.049417
 Thermal correction to Gibbs Free Energy=         0.013486
 Sum of electronic and zero-point Energies=           -592.951974
 Sum of electronic and thermal Energies=              -592.946637
 Sum of electronic and thermal Enthalpies=            -592.945693
 Sum of electronic and thermal Free Energies=         -592.981624

                     E (Thermal)             CV                S
                      KCal/Mol        Cal/Mol-Kelvin    Cal/Mol-Kelvin
 Total                   30.417             13.849             75.623
 Electronic               0.000              0.000              0.000
 Translational            0.889              2.981             38.900
 Rotational               0.889              2.981             24.946
 Vibrational             28.640              7.887             11.778
 Vibration     1          0.599              1.965              4.010
 Vibration     2          0.599              1.965              3.985
 Vibration     3          0.608              1.935              3.146

 Normal termination of Gaussian 16 at Sun Oct 13 09:52:26 2024.
