 Gaussian 16, Revision B.01,
 Gaussian 16:  ES64L-G16RevB.01 20-Dec-2017

 ---------------------------------------------------------------------
 #p b3lyp 6-31++g(d,p) scf=verytight NoSymm freq=noraman int=ultrafine
 ---------------------------------------------------------------------

 ------------------------
 RxCoord=4.69622 DE=44.99
 ------------------------
 Symbolic Z-matrix:
 Charge = -1 Multiplicity = 1

                          Input orientation:
 ---------------------------------------------------------------------
 Center     Atomic      Atomic             Coordinates (Angstroms)
 Number     Number       Type             X           Y           Z
 ---------------------------------------------------------------------
      1          6           0       -0.424427   -0.000001    0.000951
      2         17           0       -2.252399   -0.000004   -0.000153
      3          1           0       -0.088884    0.002348   -1.031531
      4          1           0       -0.091098    0.893223    0.519473
      5          1           0       -0.090812   -0.895626    0.515412
      6          6           0        2.599461    0.000044   -0.001309
      7          7           0        3.780335   -0.000023    0.000447
 ---------------------------------------------------------------------

 SCF Done:  E(RB3LYP) =  -592.995137877     A.U. after   12 cycles

 Alpha  occ. eigenvalues -- -101.41667 -14.09332 -10.10603  -9.95940  -9.33281
 Alpha  occ. eigenvalues --   -7.09594  -7.08740  -7.08740  -0.72215  -0.64607
 Alpha  occ. eigenvalues --   -0.54439  -0.31252  -0.31238  -0.28235  -0.18164
 Alpha  occ. eigenvalues --   -0.18048  -0.18046  -0.09524  -0.09524  -0.06790
 Alpha virt. eigenvalues --    0.10672   0.12349   0.14297   0.14300   0.17317
 Alpha virt. eigenvalues --    0.19910   0.20073   0.20073   0.21922   0.21932
 Alpha virt. eigenvalues --    0.23760   0.24727   0.24733   0.26842   0.27723

 Mulliken charges:
               1
     1  C   -0.441545
     2  Cl  -0.191863
     3  H    0.215276
     4  H    0.214771
     5  H    0.214787
     6  C   -0.520221
     7  N   -0.491206
 Sum of Mulliken charges =  -1.00000

 Dipole moment (field-independent basis, Debye):
    X=            -10.8865    Y=             -0.0000    Z=              0.0033  Tot=             10.8865
 Quadrupole moment (field-independent basis, Debye-Ang):
   XX=            -94.0895   YY=            -35.4717   ZZ=            -35.4723
   XY=             -0.0003   XZ=             -0.0012   YZ=              0.0001

  Exact polarizability:  86.601  -0.002  40.325   0.015  -0.000  40.324
 Approx polarizability: 106.835  -0.003  49.963   0.035  -0.001  49.962

 ******    2 imaginary frequencies (negative Signs) ******

                      1                      2                      3
                      A                      A                      A
 Frequencies --    -55.2029               -55.0796                74.0819
 Red. masses --      7.2861                 7.3172                 4.0663
 Frc consts  --      0.0131                 0.0131                 0.0131
 IR Inten    --      0.3545                 0.3433                11.9479

                      4                      5                      6
                      A                      A                      A
 Frequencies --     74.1935               114.6455               630.1728
 Red. masses --      4.0607                11.7380                 8.8016
 Frc consts  --      0.0132                 0.0909                 2.0593
 IR Inten    --     11.9550                47.7621               196.5516

                      7                      8                      9
                      A                      A                      A
 Frequencies --   1006.7200              1006.9037              1329.2280
 Red. masses --      1.1562                 1.1561                 1.1026
 Frc consts  --      0.6904                 0.6906                 1.1478
 IR Inten    --      0.3116                 0.3087                15.5807

                     10                     11                     12
                      A                      A                      A
 Frequencies --   1463.7909              1464.2837              2145.3490
 Red. masses --      1.0604                 1.0605                12.8393
 Frc consts  --      1.3387                 1.3397                34.8168
 IR Inten    --      7.8498                 7.8726                17.9457

                     13                     14                     15
                      A                      A                      A
 Frequencies --   3124.4768              3246.2316              3248.2997
 Red. masses --      1.0252                 1.1112                 1.1112
 Frc consts  --      5.8970                 6.8991                 6.9083
 IR Inten    --     12.9526                 0.3634                 0.3666

 - Thermochemistry -
 -------------------
 Temperature   298.150 Kelvin.  Pressure   1.00000 Atm.
 Atom     1 has atomic number  6 and mass  12.00000

 Molecular mass:    75.99540 amu.
 Principal axes and moments of inertia in atomic units:
                           1         2         3
     Eigenvalues --    11.515361651.293541651.29502
           X            1.00000  -0.00000   0.00003
           Y            0.00000   0.99657   0.08280
           Z           -0.00003  -0.08280   0.99657
 This molecule is an asymmetric top.
 Rotational symmetry number  1.
 Rotational temperatures (Kelvin)      7.52160     0.05245     0.05245
 Rotational constants (GHZ):         156.72474     1.09293     1.09292
    2 imaginary frequencies ignored.
 Zero-point vibrational energy     113216.8 (Joules/Mol)
                                   27.05947 (Kcal/Mol)
 Warning -- explicit consideration of   3 degrees of freedom as
           vibrations may cause significant error
 Vibrational temperatures:    106.59   106.75   164.95   906.68  1448.45
          (Kelvin)           1448.71  1912.46  2106.07  2106.78  3086.68
                             4495.43  4670.60  4673.58

 Zero-point correction=                           0.043122 (Hartree/Particle)
 Thermal correction to Energy=                    0.048470
 Thermal correction to Enthalpy=                  0.049414
 Thermal correction to Gibbs Free Energy=         0.013418
 Sum of electronic and zero-point Energies=           -592.952016
 Sum of electronic and thermal Energies=              -592.946668
 Sum of electronic and thermal Enthalpies=            -592.945724
 Sum of electronic and thermal Free Energies=         -592.981719

                     E (Thermal)             CV                S
                      KCal/Mol        Cal/Mol-Kelvin    Cal/Mol-Kelvin
 Total                   30.415             13.851             75.759
 Electronic               0.000              0.000              0.000
 Translational            0.889              2.981             38.900
 Rotational               0.889              2.981             24.955
 Vibrational             28.638              7.889             11.904
 Vibration     1          0.599              1.966              4.042
 Vibration     2          0.599              1.966              4.039
 Vibration     3          0.608              1.937              3.189

 Normal termination of Gaussian 16 at Sun Oct 13 09:52:28 2024.
