 Gaussian 16, Revision B.01,
 Gaussian 16:  ES64L-G16RevB.01 20-Dec-2017

 ---------------------------------------------------------------------
 #p b3lyp 6-31++g(d,p) scf=verytight NoSymm freq=noraman int=ultrafine
 ---------------------------------------------------------------------

 ------------------------
 RxCoord=4.79617 DE=44.93
 ------------------------
 Symbolic Z-matrix:
 Charge = -1 Multiplicity = 1

                          Input orientation:
 ---------------------------------------------------------------------
 Center     Atomic      Atomic             Coordinates (Angstroms)
 Number     Number       Type             X           Y           Z
 ---------------------------------------------------------------------
      1          6           0       -0.428933   -0.000001    0.000726
      2         17           0       -2.256729   -0.000006   -0.000180
      3          1           0       -0.094147    0.002369   -1.031712
      4          1           0       -0.094884    0.893252    0.519344
      5          1           0       -0.094807   -0.895597    0.515230
      6          6           0        2.607849    0.000040   -0.000987
      7          7           0        3.788760   -0.000019    0.000467
 ---------------------------------------------------------------------

 SCF Done:  E(RB3LYP) =  -592.995160411     A.U. after   12 cycles

 Alpha  occ. eigenvalues -- -101.41715 -14.09321 -10.10650  -9.95935  -9.33328
 Alpha  occ. eigenvalues --   -7.09643  -7.08787  -7.08787  -0.72262  -0.64594
 Alpha  occ. eigenvalues --   -0.54482  -0.31289  -0.31288  -0.28277  -0.18156
 Alpha  occ. eigenvalues --   -0.18087  -0.18087  -0.09511  -0.09511  -0.06780
 Alpha virt. eigenvalues --    0.10653   0.12314   0.14282   0.14284   0.17316
 Alpha virt. eigenvalues --    0.19877   0.20054   0.20054   0.21911   0.21919
 Alpha virt. eigenvalues --    0.23730   0.24709   0.24714   0.26822   0.27736

 Mulliken charges:
               1
     1  C   -0.441960
     2  Cl  -0.191720
     3  H    0.215211
     4  H    0.214900
     5  H    0.214911
     6  C   -0.520839
     7  N   -0.490502
 Sum of Mulliken charges =  -1.00000

 Dipole moment (field-independent basis, Debye):
    X=            -10.9410    Y=             -0.0000    Z=              0.0023  Tot=             10.9410
 Quadrupole moment (field-independent basis, Debye-Ang):
   XX=            -94.3419   YY=            -35.4737   ZZ=            -35.4734
   XY=             -0.0001   XZ=             -0.0012   YZ=              0.0000

  Exact polarizability:  86.465  -0.001  40.356   0.019   0.000  40.354
 Approx polarizability: 106.672  -0.001  49.979   0.038   0.000  49.975

 ******    2 imaginary frequencies (negative Signs) ******

                      1                      2                      3
                      A                      A                      A
 Frequencies --    -54.0424               -53.9033                72.2773
 Red. masses --      7.1564                 7.1870                 4.1038
 Frc consts  --      0.0123                 0.0123                 0.0126
 IR Inten    --      0.3996                 0.3870                11.9385

                      4                      5                      6
                      A                      A                      A
 Frequencies --     72.6796               112.1293               631.2315
 Red. masses --      4.0962                11.7253                 8.7715
 Frc consts  --      0.0127                 0.0869                 2.0592
 IR Inten    --     11.9488                47.3744               193.3828

                      7                      8                      9
                      A                      A                      A
 Frequencies --   1006.3424              1006.8031              1330.2589
 Red. masses --      1.1567                 1.1566                 1.1031
 Frc consts  --      0.6902                 0.6907                 1.1501
 IR Inten    --      0.3160                 0.3174                15.3637

                     10                     11                     12
                      A                      A                      A
 Frequencies --   1464.2380              1464.4293              2144.9873
 Red. masses --      1.0604                 1.0604                12.8398
 Frc consts  --      1.3395                 1.3399                34.8063
 IR Inten    --      7.8745                 7.8880                18.0194

                     13                     14                     15
                      A                      A                      A
 Frequencies --   3124.0356              3245.9080              3247.2789
 Red. masses --      1.0253                 1.1112                 1.1112
 Frc consts  --      5.8955                 6.8978                 6.9037
 IR Inten    --     12.9801                 0.3799                 0.3676

 - Thermochemistry -
 -------------------
 Temperature   298.150 Kelvin.  Pressure   1.00000 Atm.
 Atom     1 has atomic number  6 and mass  12.00000

 Molecular mass:    75.99540 amu.
 Principal axes and moments of inertia in atomic units:
                           1         2         3
     Eigenvalues --    11.515501658.965901658.96723
           X            1.00000  -0.00000  -0.00001
           Y            0.00000   0.99823  -0.05944
           Z            0.00001   0.05944   0.99823
 This molecule is an asymmetric top.
 Rotational symmetry number  1.
 Rotational temperatures (Kelvin)      7.52151     0.05221     0.05221
 Rotational constants (GHZ):         156.72281     1.08787     1.08787
    2 imaginary frequencies ignored.
 Zero-point vibrational energy     113182.3 (Joules/Mol)
                                   27.05121 (Kcal/Mol)
 Warning -- explicit consideration of   3 degrees of freedom as
           vibrations may cause significant error
 Vibrational temperatures:    103.99   104.57   161.33   908.20  1447.90
          (Kelvin)           1448.57  1913.95  2106.71  2106.99  3086.16
                             4494.79  4670.14  4672.11

 Zero-point correction=                           0.043109 (Hartree/Particle)
 Thermal correction to Energy=                    0.048467
 Thermal correction to Enthalpy=                  0.049412
 Thermal correction to Gibbs Free Energy=         0.013350
 Sum of electronic and zero-point Energies=           -592.952052
 Sum of electronic and thermal Energies=              -592.946693
 Sum of electronic and thermal Enthalpies=            -592.945749
 Sum of electronic and thermal Free Energies=         -592.981811

                     E (Thermal)             CV                S
                      KCal/Mol        Cal/Mol-Kelvin    Cal/Mol-Kelvin
 Total                   30.414             13.852             75.899
 Electronic               0.000              0.000              0.000
 Translational            0.889              2.981             38.900
 Rotational               0.889              2.981             24.964
 Vibrational             28.636              7.891             12.035
 Vibration     1          0.598              1.967              4.090
 Vibration     2          0.599              1.967              4.079
 Vibration     3          0.607              1.939              3.232

 Normal termination of Gaussian 16 at Sun Oct 13 09:52:43 2024.
