 Gaussian 16, Revision B.01,
 Gaussian 16:  ES64L-G16RevB.01 20-Dec-2017

 ---------------------------------------------------------------------
 #p b3lyp 6-31++g(d,p) scf=verytight NoSymm freq=noraman int=ultrafine
 ---------------------------------------------------------------------

 ------------------------
 RxCoord=4.89614 DE=44.86
 ------------------------
 Symbolic Z-matrix:
 Charge = -1 Multiplicity = 1

                          Input orientation:
 ---------------------------------------------------------------------
 Center     Atomic      Atomic             Coordinates (Angstroms)
 Number     Number       Type             X           Y           Z
 ---------------------------------------------------------------------
      1          6           0       -0.433440    0.000022    0.000456
      2         17           0       -2.261056   -0.000015   -0.000178
      3          1           0       -0.098374    0.002431   -1.032168
      4          1           0       -0.099188    0.893250    0.519015
      5          1           0       -0.099424   -0.895539    0.514901
      6          6           0        2.616239    0.000024   -0.000605
      7          7           0        3.797186   -0.000013    0.000447
 ---------------------------------------------------------------------

 SCF Done:  E(RB3LYP) =  -592.995177649     A.U. after   12 cycles

 Alpha  occ. eigenvalues -- -101.41763 -14.09310 -10.10697  -9.95931  -9.33375
 Alpha  occ. eigenvalues --   -7.09690  -7.08833  -7.08833  -0.72309  -0.64581
 Alpha  occ. eigenvalues --   -0.54525  -0.31335  -0.31329  -0.28319  -0.18147
 Alpha  occ. eigenvalues --   -0.18128  -0.18127  -0.09499  -0.09499  -0.06770
 Alpha virt. eigenvalues --    0.10634   0.12280   0.14266   0.14267   0.17316
 Alpha virt. eigenvalues --    0.19845   0.20035   0.20035   0.21900   0.21905
 Alpha virt. eigenvalues --    0.23700   0.24692   0.24695   0.26802   0.27747

 Mulliken charges:
               1
     1  C   -0.442343
     2  Cl  -0.191567
     3  H    0.215212
     4  H    0.214999
     5  H    0.214974
     6  C   -0.521455
     7  N   -0.489820
 Sum of Mulliken charges =  -1.00000

 Dipole moment (field-independent basis, Debye):
    X=            -10.9954    Y=              0.0000    Z=              0.0012  Tot=             10.9954
 Quadrupole moment (field-independent basis, Debye-Ang):
   XX=            -94.5956   YY=            -35.4751   ZZ=            -35.4749
   XY=              0.0003   XZ=             -0.0032   YZ=             -0.0001

  Exact polarizability:  86.330   0.001  40.385   0.012   0.000  40.385
 Approx polarizability: 106.511   0.001  49.992   0.024   0.000  49.992

 ******    2 imaginary frequencies (negative Signs) ******

                      1                      2                      3
                      A                      A                      A
 Frequencies --    -52.8840               -52.8323                70.8062
 Red. masses --      7.0342                 7.0453                 4.1400
 Frc consts  --      0.0116                 0.0116                 0.0122
 IR Inten    --      0.4453                 0.4405                11.9305

                      4                      5                      6
                      A                      A                      A
 Frequencies --     70.9266               109.6412               632.2815
 Red. masses --      4.1399                11.7130                 8.7425
 Frc consts  --      0.0123                 0.0830                 2.0592
 IR Inten    --     11.9312                46.9989               190.3030

                      7                      8                      9
                      A                      A                      A
 Frequencies --   1006.3369              1006.4791              1331.2949
 Red. masses --      1.1572                 1.1571                 1.1037
 Frc consts  --      0.6904                 0.6906                 1.1525
 IR Inten    --      0.3236                 0.3230                15.1540

                     10                     11                     12
                      A                      A                      A
 Frequencies --   1464.5446              1464.7253              2144.6359
 Red. masses --      1.0603                 1.0604                12.8402
 Frc consts  --      1.3400                 1.3403                34.7961
 IR Inten    --      7.8946                 7.9054                18.0916

                     13                     14                     15
                      A                      A                      A
 Frequencies --   3123.5294              3245.4336              3246.3062
 Red. masses --      1.0253                 1.1112                 1.1112
 Frc consts  --      5.8937                 6.8956                 6.8994
 IR Inten    --     13.0103                 0.3826                 0.3848

 - Thermochemistry -
 -------------------
 Temperature   298.150 Kelvin.  Pressure   1.00000 Atm.
 Atom     1 has atomic number  6 and mass  12.00000

 Molecular mass:    75.99540 amu.
 Principal axes and moments of inertia in atomic units:
                           1         2         3
     Eigenvalues --    11.516011666.658201666.65830
           X            1.00000   0.00002  -0.00003
           Y            0.00000   0.83303   0.55323
           Z            0.00003  -0.55323   0.83303
 This molecule is an asymmetric top.
 Rotational symmetry number  1.
 Rotational temperatures (Kelvin)      7.52118     0.05197     0.05197
 Rotational constants (GHZ):         156.71588     1.08285     1.08285
    2 imaginary frequencies ignored.
 Zero-point vibrational energy     113148.4 (Joules/Mol)
                                   27.04313 (Kcal/Mol)
 Warning -- explicit consideration of   3 degrees of freedom as
           vibrations may cause significant error
 Vibrational temperatures:    101.87   102.05   157.75   909.71  1447.89
          (Kelvin)           1448.10  1915.44  2107.15  2107.41  3085.65
                             4494.06  4669.46  4670.71

 Zero-point correction=                           0.043096 (Hartree/Particle)
 Thermal correction to Energy=                    0.048465
 Thermal correction to Enthalpy=                  0.049409
 Thermal correction to Gibbs Free Energy=         0.013281
 Sum of electronic and zero-point Energies=           -592.952082
 Sum of electronic and thermal Energies=              -592.946712
 Sum of electronic and thermal Enthalpies=            -592.945768
 Sum of electronic and thermal Free Energies=         -592.981897

                     E (Thermal)             CV                S
                      KCal/Mol        Cal/Mol-Kelvin    Cal/Mol-Kelvin
 Total                   30.412             13.854             76.038
 Electronic               0.000              0.000              0.000
 Translational            0.889              2.981             38.900
 Rotational               0.889              2.981             24.973
 Vibrational             28.635              7.892             12.165
 Vibration     1          0.598              1.968              4.131
 Vibration     2          0.598              1.968              4.127
 Vibration     3          0.606              1.941              3.275

 Normal termination of Gaussian 16 at Sun Oct 13 09:52:43 2024.
