 Gaussian 16, Revision B.01,
 Gaussian 16:  ES64L-G16RevB.01 20-Dec-2017

 ----------------------------------------------------------------------
 #b3lyp 6-31++g(d,p) IRC=(Calcfc, MassWeighted, MaxPoint=100, stepsize=
 -10, LQA, verytight) int=ultrafine scrf=(pcm,solvent=water)
 ----------------------------------------------------------------------

 -------
 comment
 -------
 Symbolic Z-matrix:
 Charge = -1 Multiplicity = 1

 SCF Done:  E(RB3LYP) =  -593.070161102     A.U. after   12 cycles
 SCF Done:  E(RB3LYP) =  -593.070207872     A.U. after   10 cycles
 SCF Done:  E(RB3LYP) =  -593.070344794     A.U. after   10 cycles
 SCF Done:  E(RB3LYP) =  -593.070566657     A.U. after   10 cycles
 SCF Done:  E(RB3LYP) =  -593.070867778     A.U. after   10 cycles
 SCF Done:  E(RB3LYP) =  -593.071242099     A.U. after   10 cycles
 SCF Done:  E(RB3LYP) =  -593.071683171     A.U. after   10 cycles
 SCF Done:  E(RB3LYP) =  -593.072184189     A.U. after   10 cycles
 SCF Done:  E(RB3LYP) =  -593.072738006     A.U. after   10 cycles
 SCF Done:  E(RB3LYP) =  -593.073337154     A.U. after   10 cycles
 SCF Done:  E(RB3LYP) =  -593.157927996     A.U. after    8 cycles
 SCF Done:  E(RB3LYP) =  -593.157977526     A.U. after    8 cycles
 SCF Done:  E(RB3LYP) =  -593.158025874     A.U. after    8 cycles
 SCF Done:  E(RB3LYP) =  -593.158073253     A.U. after    8 cycles
 SCF Done:  E(RB3LYP) =  -593.158119135     A.U. after    8 cycles
 SCF Done:  E(RB3LYP) =  -593.158163424     A.U. after    8 cycles
 SCF Done:  E(RB3LYP) =  -593.158206123     A.U. after    8 cycles
 SCF Done:  E(RB3LYP) =  -593.158247259     A.U. after    8 cycles
 SCF Done:  E(RB3LYP) =  -593.158286773     A.U. after    8 cycles
 SCF Done:  E(RB3LYP) =  -593.158323983     A.U. after    8 cycles

                          Input orientation:
 ---------------------------------------------------------------------
 Center     Atomic      Atomic             Coordinates (Angstroms)
 Number     Number       Type             X           Y           Z
 ---------------------------------------------------------------------
      1          6           0        0.943805    0.000192    0.009574
      2         17           0       -2.624353    0.000014   -0.002425
      3          1           0        0.557349    0.002593   -1.011416
      4          1           0        0.570695    0.886437    0.527154
      5          1           0        0.570400   -0.888644    0.522853
      6          6           0        2.401933   -0.000710    0.001065
      7          7           0        3.564218    0.000382   -0.005839
 ---------------------------------------------------------------------

 Alpha  occ. eigenvalues -- -101.44430 -14.34959 -10.24932 -10.22434  -9.35751
 Alpha  occ. eigenvalues --   -7.11540  -7.11540  -7.11521  -0.91894  -0.76885
 Alpha  occ. eigenvalues --   -0.69669  -0.50930  -0.45215  -0.45205  -0.38248
 Alpha  occ. eigenvalues --   -0.33927  -0.33923  -0.24439  -0.24439  -0.24298
 Alpha virt. eigenvalues --   -0.00620   0.01759   0.01767   0.02716   0.04282
 Alpha virt. eigenvalues --    0.04285   0.05673   0.08504   0.08506   0.09423
 Alpha virt. eigenvalues --    0.11145   0.11203   0.12354   0.12373   0.13072

 Mulliken charges:
               1
     1  C   -0.057744
     2  Cl  -0.987851
     3  H    0.217024
     4  H    0.216453
     5  H    0.216293
     6  C    0.005145
     7  N   -0.609320
 Sum of Mulliken charges =  -1.00000

 Dipole moment (field-independent basis, Debye):
    X=              7.4782    Y=             -0.0010    Z=              0.0407  Tot=              7.4783
 Quadrupole moment (field-independent basis, Debye-Ang):
   XX=            -94.5352   YY=            -34.8393   ZZ=            -34.8403
   XY=             -0.0036   XZ=              0.0482   YZ=              0.0004

  Exact polarizability:   0.000   0.000   0.000   0.000   0.000   0.000
 Approx polarizability:  86.192   0.032  44.533  -0.174  -0.002  44.527

 Normal termination of Gaussian 16 at Sat Oct 12 23:10:41 2024.
