 Gaussian 16, Revision B.01,
 Gaussian 16:  ES64L-G16RevB.01 20-Dec-2017

 ---------------------------------------------------------------------
 #p b3lyp 6-31++g(d,p) scf=verytight NoSymm freq=noraman int=ultrafine
 ---------------------------------------------------------------------

 ------------------------
 RxCoord=-9.98539 DE=0.00
 ------------------------
 Symbolic Z-matrix:
 Charge = -1 Multiplicity = 1

                          Input orientation:
 ---------------------------------------------------------------------
 Center     Atomic      Atomic             Coordinates (Angstroms)
 Number     Number       Type             X           Y           Z
 ---------------------------------------------------------------------
      1          6           0        0.943805    0.000192    0.009574
      2         17           0       -2.624353    0.000014   -0.002425
      3          1           0        0.557349    0.002593   -1.011416
      4          1           0        0.570695    0.886437    0.527154
      5          1           0        0.570400   -0.888644    0.522853
      6          6           0        2.401933   -0.000710    0.001065
      7          7           0        3.564218    0.000382   -0.005839
 ---------------------------------------------------------------------

 SCF Done:  E(RB3LYP) =  -593.059382924     A.U. after   12 cycles

 Alpha  occ. eigenvalues -- -101.25353 -14.23644 -10.13374 -10.10806  -9.16678
 Alpha  occ. eigenvalues --   -6.92460  -6.92458  -6.92458  -0.80586  -0.65360
 Alpha  occ. eigenvalues --   -0.50375  -0.39107  -0.33751  -0.33735  -0.26609
 Alpha  occ. eigenvalues --   -0.22525  -0.22523  -0.05138  -0.04999  -0.04998
 Alpha virt. eigenvalues --    0.09625   0.12958   0.12974   0.14019   0.14146
 Alpha virt. eigenvalues --    0.14150   0.19646   0.20109   0.20125   0.21921
 Alpha virt. eigenvalues --    0.22556   0.22569   0.24617   0.25767   0.25784

 Mulliken charges:
               1
     1  C   -0.124681
     2  Cl  -0.944701
     3  H    0.212512
     4  H    0.210756
     5  H    0.210608
     6  C    0.006383
     7  N   -0.570877
 Sum of Mulliken charges =  -1.00000

 Dipole moment (field-independent basis, Debye):
    X=              7.0057    Y=             -0.0008    Z=              0.0353  Tot=              7.0058
 Quadrupole moment (field-independent basis, Debye-Ang):
   XX=            -92.9742   YY=            -35.4704   ZZ=            -35.4692
   XY=             -0.0028   XZ=              0.0392   YZ=              0.0003

  Exact polarizability:  77.978   0.011  41.605  -0.089  -0.001  41.627
 Approx polarizability:  96.264   0.032  49.577  -0.182  -0.002  49.595

 ******    2 imaginary frequencies (negative Signs) ******

                      1                      2                      3
                      A                      A                      A
 Frequencies --    -55.0660               -52.8654                61.4349
 Red. masses --      3.5406                 3.5515                11.8874
 Frc consts  --      0.0063                 0.0058                 0.0264
 IR Inten    --     20.5870                20.5697                20.6943

                      4                      5                      6
                      A                      A                      A
 Frequencies --    371.7425               372.6485               920.9417
 Red. masses --      3.5796                 3.5818                 4.7253
 Frc consts  --      0.2915                 0.2931                 2.3613
 IR Inten    --      1.3495                 1.3265                 9.0485

                      7                      8                      9
                      A                      A                      A
 Frequencies --   1024.6889              1026.0560              1371.1482
 Red. masses --      1.5057                 1.5028                 1.2256
 Frc consts  --      0.9315                 0.9321                 1.3576
 IR Inten    --      1.2845                 1.2866                30.8479

                     10                     11                     12
                      A                      A                      A
 Frequencies --   1452.7869              1452.9643              2348.9338
 Red. masses --      1.0399                 1.0400                12.5241
 Frc consts  --      1.2931                 1.2936                40.7136
 IR Inten    --     13.6164                13.5742                42.6117

                     13                     14                     15
                      A                      A                      A
 Frequencies --   3079.4133              3161.0014              3164.1497
 Red. masses --      1.0336                 1.1032                 1.1032
 Frc consts  --      5.7747                 6.4944                 6.5078
 IR Inten    --      1.0490                 0.1246                 0.1782

 - Thermochemistry -
 -------------------
 Temperature   298.150 Kelvin.  Pressure   1.00000 Atm.
 Atom     1 has atomic number  6 and mass  12.00000

 Molecular mass:    75.99540 amu.
 Principal axes and moments of inertia in atomic units:
                           1         2         3
     Eigenvalues --    11.342141789.840091789.84195
           X            1.00000  -0.00021   0.00001
           Y           -0.00000   0.03246   0.99947
           Z            0.00021   0.99947  -0.03246
 This molecule is an asymmetric top.
 Rotational symmetry number  1.
 Rotational temperatures (Kelvin)      7.63647     0.04839     0.04839
 Rotational constants (GHZ):         159.11819     1.00833     1.00832
    2 imaginary frequencies ignored.
 Zero-point vibrational energy     118477.6 (Joules/Mol)
                                   28.31683 (Kcal/Mol)
 Warning -- explicit consideration of   3 degrees of freedom as
           vibrations may cause significant error
 Vibrational temperatures:     88.39   534.85   536.16  1325.03  1474.30
          (Kelvin)           1476.27  1972.78  2090.24  2090.49  3379.59
                             4430.59  4547.98  4552.51

 Zero-point correction=                           0.045126 (Hartree/Particle)
 Thermal correction to Energy=                    0.049581
 Thermal correction to Enthalpy=                  0.050526
 Thermal correction to Gibbs Free Energy=         0.016839
 Sum of electronic and zero-point Energies=           -593.014257
 Sum of electronic and thermal Energies=              -593.009802
 Sum of electronic and thermal Enthalpies=            -593.008857
 Sum of electronic and thermal Free Energies=         -593.042543

                     E (Thermal)             CV                S
                      KCal/Mol        Cal/Mol-Kelvin    Cal/Mol-Kelvin
 Total                   31.113             12.462             70.898
 Electronic               0.000              0.000              0.000
 Translational            0.889              2.981             38.900
 Rotational               0.889              2.981             25.100
 Vibrational             29.335              6.500              6.899
 Vibration     1          0.597              1.973              4.411
 Vibration     2          0.743              1.530              1.073
 Vibration     3          0.744              1.528              1.069

 Normal termination of Gaussian 16 at Sun Oct 13 09:46:17 2024.
