 Gaussian 16, Revision B.01,
 Gaussian 16:  ES64L-G16RevB.01 20-Dec-2017

 ---------------------------------------------------------------------
 #p b3lyp 6-31++g(d,p) scf=verytight NoSymm freq=noraman int=ultrafine
 ---------------------------------------------------------------------

 ------------------------
 RxCoord=-9.88544 DE=0.02
 ------------------------
 Symbolic Z-matrix:
 Charge = -1 Multiplicity = 1

                          Input orientation:
 ---------------------------------------------------------------------
 Center     Atomic      Atomic             Coordinates (Angstroms)
 Number     Number       Type             X           Y           Z
 ---------------------------------------------------------------------
      1          6           0        0.938291   -0.000167    0.009354
      2         17           0       -2.617859    0.000017   -0.002406
      3          1           0        0.551960    0.002303   -1.011920
      4          1           0        0.564676    0.886136    0.526440
      5          1           0        0.564773   -0.888898    0.522194
      6          6           0        2.396408    0.000229   -0.000264
      7          7           0        3.558689   -0.000062   -0.004423
 ---------------------------------------------------------------------

 SCF Done:  E(RB3LYP) =  -593.059436196     A.U. after   12 cycles

 Alpha  occ. eigenvalues -- -101.25359 -14.23615 -10.13345 -10.10764  -9.16685
 Alpha  occ. eigenvalues --   -6.92466  -6.92465  -6.92465  -0.80559  -0.65322
 Alpha  occ. eigenvalues --   -0.50385  -0.39071  -0.33716  -0.33692  -0.26584
 Alpha  occ. eigenvalues --   -0.22497  -0.22494  -0.05147  -0.05009  -0.05008
 Alpha virt. eigenvalues --    0.09643   0.12979   0.13002   0.14030   0.14165
 Alpha virt. eigenvalues --    0.14171   0.19656   0.20125   0.20143   0.21923
 Alpha virt. eigenvalues --    0.22571   0.22599   0.24644   0.25774   0.25791

 Mulliken charges:
               1
     1  C   -0.121024
     2  Cl  -0.944034
     3  H    0.212537
     4  H    0.211043
     5  H    0.211094
     6  C    0.001450
     7  N   -0.571065
 Sum of Mulliken charges =  -1.00000

 Dipole moment (field-independent basis, Debye):
    X=              6.9691    Y=             -0.0001    Z=              0.0317  Tot=              6.9692
 Quadrupole moment (field-independent basis, Debye-Ang):
   XX=            -92.7804   YY=            -35.4686   ZZ=            -35.4693
   XY=              0.0005   XZ=              0.0269   YZ=             -0.0001

  Exact polarizability:  78.002  -0.003  41.608  -0.059   0.000  41.630
 Approx polarizability:  96.296  -0.009  49.596  -0.101   0.001  49.617

 ******    2 imaginary frequencies (negative Signs) ******

                      1                      2                      3
                      A                      A                      A
 Frequencies --    -54.9566               -53.4509                63.2019
 Red. masses --      3.5452                 3.5511                11.8913
 Frc consts  --      0.0063                 0.0060                 0.0280
 IR Inten    --     20.6027                20.5812                20.6865

                      4                      5                      6
                      A                      A                      A
 Frequencies --    371.8627               372.4123               920.8775
 Red. masses --      3.5757                 3.5792                 4.7276
 Frc consts  --      0.2913                 0.2925                 2.3621
 IR Inten    --      1.3377                 1.3380                 9.1106

                      7                      8                      9
                      A                      A                      A
 Frequencies --   1024.5865              1025.6547              1370.7163
 Red. masses --      1.5058                 1.5032                 1.2254
 Frc consts  --      0.9314                 0.9317                 1.3565
 IR Inten    --      1.2947                 1.2808                31.1055

                     10                     11                     12
                      A                      A                      A
 Frequencies --   1452.5181              1452.8149              2348.9973
 Red. masses --      1.0400                 1.0399                12.5237
 Frc consts  --      1.2928                 1.2932                40.7145
 IR Inten    --     13.5714                13.5767                42.8167

                     13                     14                     15
                      A                      A                      A
 Frequencies --   3079.6492              3162.4206              3162.9844
 Red. masses --      1.0336                 1.1032                 1.1032
 Frc consts  --      5.7754                 6.5006                 6.5029
 IR Inten    --      1.0765                 0.1347                 0.1638

 - Thermochemistry -
 -------------------
 Temperature   298.150 Kelvin.  Pressure   1.00000 Atm.
 Atom     1 has atomic number  6 and mass  12.00000

 Molecular mass:    75.99540 amu.
 Principal axes and moments of inertia in atomic units:
                           1         2         3
     Eigenvalues --    11.339291781.969051781.96944
           X            1.00000   0.00007  -0.00026
           Y           -0.00000   0.96639   0.25707
           Z            0.00027  -0.25707   0.96639
 This molecule is an asymmetric top.
 Rotational symmetry number  1.
 Rotational temperatures (Kelvin)      7.63839     0.04861     0.04861
 Rotational constants (GHZ):         159.15817     1.01278     1.01278
    2 imaginary frequencies ignored.
 Zero-point vibrational energy     118482.3 (Joules/Mol)
                                   28.31795 (Kcal/Mol)
 Warning -- explicit consideration of   3 degrees of freedom as
           vibrations may cause significant error
 Vibrational temperatures:     90.93   535.03   535.82  1324.94  1474.15
          (Kelvin)           1475.69  1972.16  2089.85  2090.28  3379.68
                             4430.93  4550.02  4550.83

 Zero-point correction=                           0.045128 (Hartree/Particle)
 Thermal correction to Energy=                    0.049580
 Thermal correction to Enthalpy=                  0.050524
 Thermal correction to Gibbs Free Energy=         0.016868
 Sum of electronic and zero-point Energies=           -593.014309
 Sum of electronic and thermal Energies=              -593.009856
 Sum of electronic and thermal Enthalpies=            -593.008912
 Sum of electronic and thermal Free Energies=         -593.042568

                     E (Thermal)             CV                S
                      KCal/Mol        Cal/Mol-Kelvin    Cal/Mol-Kelvin
 Total                   31.112             12.462             70.834
 Electronic               0.000              0.000              0.000
 Translational            0.889              2.981             38.900
 Rotational               0.889              2.981             25.091
 Vibrational             29.334              6.501              6.843
 Vibration     1          0.597              1.972              4.355
 Vibration     2          0.744              1.530              1.072
 Vibration     3          0.744              1.529              1.070

 Normal termination of Gaussian 16 at Sun Oct 13 09:46:18 2024.
