 Gaussian 16, Revision B.01,
 Gaussian 16:  ES64L-G16RevB.01 20-Dec-2017

 ---------------------------------------------------------------------
 #p b3lyp 6-31++g(d,p) scf=verytight NoSymm freq=noraman int=ultrafine
 ---------------------------------------------------------------------

 ------------------------
 RxCoord=-9.78547 DE=0.04
 ------------------------
 Symbolic Z-matrix:
 Charge = -1 Multiplicity = 1

                          Input orientation:
 ---------------------------------------------------------------------
 Center     Atomic      Atomic             Coordinates (Angstroms)
 Number     Number       Type             X           Y           Z
 ---------------------------------------------------------------------
      1          6           0        0.932745   -0.000054    0.008463
      2         17           0       -2.611316    0.000015   -0.002409
      3          1           0        0.547089    0.002360   -1.012962
      4          1           0        0.558590    0.886163    0.525243
      5          1           0        0.558598   -0.888732    0.521043
      6          6           0        2.390827   -0.000078    0.000499
      7          7           0        3.553115    0.000091   -0.004063
 ---------------------------------------------------------------------

 SCF Done:  E(RB3LYP) =  -593.059488074     A.U. after   13 cycles

 Alpha  occ. eigenvalues -- -101.25366 -14.23587 -10.13316 -10.10721  -9.16692
 Alpha  occ. eigenvalues --   -6.92473  -6.92472  -6.92471  -0.80532  -0.65285
 Alpha  occ. eigenvalues --   -0.50395  -0.39036  -0.33676  -0.33655  -0.26559
 Alpha  occ. eigenvalues --   -0.22467  -0.22465  -0.05155  -0.05018  -0.05017
 Alpha virt. eigenvalues --    0.09661   0.13006   0.13023   0.14042   0.14186
 Alpha virt. eigenvalues --    0.14190   0.19667   0.20143   0.20158   0.21925
 Alpha virt. eigenvalues --    0.22598   0.22616   0.24671   0.25782   0.25798

 Mulliken charges:
               1
     1  C   -0.117146
     2  Cl  -0.943350
     3  H    0.212817
     4  H    0.211346
     5  H    0.211325
     6  C   -0.003725
     7  N   -0.571266
 Sum of Mulliken charges =  -1.00000

 Dipole moment (field-independent basis, Debye):
    X=              6.9323    Y=             -0.0003    Z=              0.0300  Tot=              6.9323
 Quadrupole moment (field-independent basis, Debye-Ang):
   XX=            -92.5861   YY=            -35.4679   ZZ=            -35.4684
   XY=             -0.0007   XZ=              0.0224   YZ=              0.0000

  Exact polarizability:  78.028   0.002  41.612  -0.059  -0.000  41.630
 Approx polarizability:  96.332   0.005  49.619  -0.114  -0.000  49.635

 ******    2 imaginary frequencies (negative Signs) ******

                      1                      2                      3
                      A                      A                      A
 Frequencies --    -55.2417               -53.5494                64.9789
 Red. masses --      3.5442                 3.5530                11.8949
 Frc consts  --      0.0064                 0.0060                 0.0296
 IR Inten    --     20.6105                20.5946                20.6793

                      4                      5                      6
                      A                      A                      A
 Frequencies --    371.8066               372.4923               920.8957
 Red. masses --      3.5736                 3.5764                 4.7292
 Frc consts  --      0.2911                 0.2924                 2.3630
 IR Inten    --      1.3456                 1.3364                 9.1728

                      7                      8                      9
                      A                      A                      A
 Frequencies --   1024.2404              1025.4221              1370.2591
 Red. masses --      1.5063                 1.5036                 1.2253
 Frc consts  --      0.9310                 0.9315                 1.3555
 IR Inten    --      1.2949                 1.2871                31.3717

                     10                     11                     12
                      A                      A                      A
 Frequencies --   1452.3298              1452.5389              2348.9012
 Red. masses --      1.0400                 1.0399                12.5232
 Frc consts  --      1.2925                 1.2927                40.7094
 IR Inten    --     13.5399                13.5628                43.0414

                     13                     14                     15
                      A                      A                      A
 Frequencies --   3079.9133              3162.3694              3163.5344
 Red. masses --      1.0336                 1.1032                 1.1032
 Frc consts  --      5.7765                 6.5003                 6.5051
 IR Inten    --      1.0994                 0.1336                 0.1736

 - Thermochemistry -
 -------------------
 Temperature   298.150 Kelvin.  Pressure   1.00000 Atm.
 Atom     1 has atomic number  6 and mass  12.00000

 Molecular mass:    75.99540 amu.
 Principal axes and moments of inertia in atomic units:
                           1         2         3
     Eigenvalues --    11.336261774.053701774.05529
           X            1.00000   0.00001  -0.00032
           Y            0.00000   0.99901   0.04439
           Z            0.00032  -0.04439   0.99901
 This molecule is an asymmetric top.
 Rotational symmetry number  1.
 Rotational temperatures (Kelvin)      7.64043     0.04882     0.04882
 Rotational constants (GHZ):         159.20069     1.01730     1.01730
    2 imaginary frequencies ignored.
 Zero-point vibrational energy     118488.2 (Joules/Mol)
                                   28.31936 (Kcal/Mol)
 Warning -- explicit consideration of   3 degrees of freedom as
           vibrations may cause significant error
 Vibrational temperatures:     93.49   534.95   535.93  1324.96  1473.65
          (Kelvin)           1475.35  1971.50  2089.58  2089.88  3379.54
                             4431.31  4549.94  4551.62

 Zero-point correction=                           0.045130 (Hartree/Particle)
 Thermal correction to Energy=                    0.049578
 Thermal correction to Enthalpy=                  0.050523
 Thermal correction to Gibbs Free Energy=         0.016897
 Sum of electronic and zero-point Energies=           -593.014358
 Sum of electronic and thermal Energies=              -593.009910
 Sum of electronic and thermal Enthalpies=            -593.008965
 Sum of electronic and thermal Free Energies=         -593.042591

                     E (Thermal)             CV                S
                      KCal/Mol        Cal/Mol-Kelvin    Cal/Mol-Kelvin
 Total                   31.111             12.462             70.770
 Electronic               0.000              0.000              0.000
 Translational            0.889              2.981             38.900
 Rotational               0.889              2.981             25.082
 Vibrational             29.333              6.501              6.789
 Vibration     1          0.597              1.971              4.300
 Vibration     2          0.744              1.530              1.072
 Vibration     3          0.744              1.529              1.070

 Normal termination of Gaussian 16 at Sun Oct 13 09:46:18 2024.
