 Gaussian 16, Revision B.01,
 Gaussian 16:  ES64L-G16RevB.01 20-Dec-2017

 ---------------------------------------------------------------------
 #p b3lyp 6-31++g(d,p) scf=verytight NoSymm freq=noraman int=ultrafine
 ---------------------------------------------------------------------

 ------------------------
 RxCoord=-9.68549 DE=0.07
 ------------------------
 Symbolic Z-matrix:
 Charge = -1 Multiplicity = 1

                          Input orientation:
 ---------------------------------------------------------------------
 Center     Atomic      Atomic             Coordinates (Angstroms)
 Number     Number       Type             X           Y           Z
 ---------------------------------------------------------------------
      1          6           0        0.927199   -0.000075    0.007995
      2         17           0       -2.604757    0.000017   -0.002428
      3          1           0        0.542091    0.002279   -1.013682
      4          1           0        0.552486    0.886081    0.524354
      5          1           0        0.552555   -0.888685    0.520198
      6          6           0        2.385231   -0.000042    0.000413
      7          7           0        3.547519    0.000080   -0.003364
 ---------------------------------------------------------------------

 SCF Done:  E(RB3LYP) =  -593.059538259     A.U. after   13 cycles

 Alpha  occ. eigenvalues -- -101.25372 -14.23558 -10.13286 -10.10678  -9.16699
 Alpha  occ. eigenvalues --   -6.92479  -6.92479  -6.92478  -0.80504  -0.65248
 Alpha  occ. eigenvalues --   -0.50405  -0.39001  -0.33638  -0.33615  -0.26533
 Alpha  occ. eigenvalues --   -0.22438  -0.22435  -0.05164  -0.05028  -0.05027
 Alpha virt. eigenvalues --    0.09679   0.13030   0.13048   0.14053   0.14206
 Alpha virt. eigenvalues --    0.14211   0.19678   0.20161   0.20175   0.21926
 Alpha virt. eigenvalues --    0.22618   0.22640   0.24698   0.25790   0.25804

 Mulliken charges:
               1
     1  C   -0.113336
     2  Cl  -0.942663
     3  H    0.212971
     4  H    0.211672
     5  H    0.211654
     6  C   -0.008825
     7  N   -0.571473
 Sum of Mulliken charges =  -1.00000

 Dipole moment (field-independent basis, Debye):
    X=              6.8953    Y=             -0.0004    Z=              0.0280  Tot=              6.8954
 Quadrupole moment (field-independent basis, Debye-Ang):
   XX=            -92.3918   YY=            -35.4667   ZZ=            -35.4678
   XY=             -0.0006   XZ=              0.0152   YZ=              0.0001

  Exact polarizability:  78.053   0.001  41.614  -0.048   0.000  41.631
 Approx polarizability:  96.367   0.003  49.640  -0.091   0.000  49.655

 ******    2 imaginary frequencies (negative Signs) ******

                      1                      2                      3
                      A                      A                      A
 Frequencies --    -55.4299               -53.9491                66.7601
 Red. masses --      3.5454                 3.5532                11.8988
 Frc consts  --      0.0064                 0.0061                 0.0312
 IR Inten    --     20.6214                20.6069                20.6722

                      4                      5                      6
                      A                      A                      A
 Frequencies --    371.8201               372.4071               920.9357
 Red. masses --      3.5709                 3.5737                 4.7305
 Frc consts  --      0.2909                 0.2920                 2.3638
 IR Inten    --      1.3459                 1.3410                 9.2362

                      7                      8                      9
                      A                      A                      A
 Frequencies --   1023.9883              1025.0875              1369.7935
 Red. masses --      1.5066                 1.5040                 1.2251
 Frc consts  --      0.9307                 0.9312                 1.3544
 IR Inten    --      1.3002                 1.2878                31.6444

                     10                     11                     12
                      A                      A                      A
 Frequencies --   1452.0398              1452.3580              2348.8870
 Red. masses --      1.0400                 1.0399                12.5227
 Frc consts  --      1.2919                 1.2924                40.7072
 IR Inten    --     13.5237                13.5342                43.2707

                     13                     14                     15
                      A                      A                      A
 Frequencies --   3080.1930              3162.9744              3163.4055
 Red. masses --      1.0336                 1.1032                 1.1032
 Frc consts  --      5.7776                 6.5029                 6.5044
 IR Inten    --      1.1249                 0.1393                 0.1717

 - Thermochemistry -
 -------------------
 Temperature   298.150 Kelvin.  Pressure   1.00000 Atm.
 Atom     1 has atomic number  6 and mass  12.00000

 Molecular mass:    75.99540 amu.
 Principal axes and moments of inertia in atomic units:
                           1         2         3
     Eigenvalues --    11.333521766.137051766.13972
           X            1.00000  -0.00000  -0.00037
           Y            0.00000   0.99998  -0.00700
           Z            0.00037   0.00700   0.99998
 This molecule is an asymmetric top.
 Rotational symmetry number  1.
 Rotational temperatures (Kelvin)      7.64228     0.04904     0.04904
 Rotational constants (GHZ):         159.23922     1.02186     1.02186
    2 imaginary frequencies ignored.
 Zero-point vibrational energy     118494.0 (Joules/Mol)
                                   28.32075 (Kcal/Mol)
 Warning -- explicit consideration of   3 degrees of freedom as
           vibrations may cause significant error
 Vibrational temperatures:     96.05   534.97   535.81  1325.02  1473.29
          (Kelvin)           1474.87  1970.83  2089.16  2089.62  3379.52
                             4431.71  4550.81  4551.43

 Zero-point correction=                           0.045132 (Hartree/Particle)
 Thermal correction to Energy=                    0.049577
 Thermal correction to Enthalpy=                  0.050521
 Thermal correction to Gibbs Free Energy=         0.016925
 Sum of electronic and zero-point Energies=           -593.014406
 Sum of electronic and thermal Energies=              -593.009961
 Sum of electronic and thermal Enthalpies=            -593.009017
 Sum of electronic and thermal Free Energies=         -593.042613

                     E (Thermal)             CV                S
                      KCal/Mol        Cal/Mol-Kelvin    Cal/Mol-Kelvin
 Total                   31.110             12.462             70.709
 Electronic               0.000              0.000              0.000
 Translational            0.889              2.981             38.900
 Rotational               0.889              2.981             25.073
 Vibrational             29.333              6.501              6.736
 Vibration     1          0.598              1.970              4.247
 Vibration     2          0.744              1.530              1.072
 Vibration     3          0.744              1.529              1.070

 Normal termination of Gaussian 16 at Sun Oct 13 09:46:21 2024.
