 Gaussian 16, Revision B.01,
 Gaussian 16:  ES64L-G16RevB.01 20-Dec-2017

 ---------------------------------------------------------------------
 #p b3lyp 6-31++g(d,p) scf=verytight NoSymm freq=noraman int=ultrafine
 ---------------------------------------------------------------------

 ------------------------
 RxCoord=-9.58552 DE=0.10
 ------------------------
 Symbolic Z-matrix:
 Charge = -1 Multiplicity = 1

                          Input orientation:
 ---------------------------------------------------------------------
 Center     Atomic      Atomic             Coordinates (Angstroms)
 Number     Number       Type             X           Y           Z
 ---------------------------------------------------------------------
      1          6           0        0.921646   -0.000139    0.007412
      2         17           0       -2.598197    0.000016   -0.002448
      3          1           0        0.537218    0.002235   -1.014477
      4          1           0        0.546342    0.885983    0.523437
      5          1           0        0.546474   -0.888624    0.519381
      6          6           0        2.379634    0.000140    0.000878
      7          7           0        3.541925   -0.000012   -0.003031
 ---------------------------------------------------------------------

 SCF Done:  E(RB3LYP) =  -593.059586405     A.U. after   13 cycles

 Alpha  occ. eigenvalues -- -101.25378 -14.23530 -10.13257 -10.10634  -9.16705
 Alpha  occ. eigenvalues --   -6.92486  -6.92485  -6.92485  -0.80477  -0.65211
 Alpha  occ. eigenvalues --   -0.50416  -0.38965  -0.33598  -0.33578  -0.26507
 Alpha  occ. eigenvalues --   -0.22409  -0.22406  -0.05172  -0.05037  -0.05037
 Alpha virt. eigenvalues --    0.09697   0.13056   0.13071   0.14064   0.14227
 Alpha virt. eigenvalues --    0.14231   0.19688   0.20178   0.20191   0.21928
 Alpha virt. eigenvalues --    0.22642   0.22660   0.24725   0.25798   0.25811

 Mulliken charges:
               1
     1  C   -0.109465
     2  Cl  -0.941970
     3  H    0.213190
     4  H    0.211943
     5  H    0.211962
     6  C   -0.013971
     7  N   -0.571689
 Sum of Mulliken charges =  -1.00000

 Dipole moment (field-independent basis, Debye):
    X=              6.8584    Y=             -0.0002    Z=              0.0268  Tot=              6.8585
 Quadrupole moment (field-independent basis, Debye-Ang):
   XX=            -92.1983   YY=            -35.4659   ZZ=            -35.4668
   XY=              0.0001   XZ=              0.0110   YZ=             -0.0001

  Exact polarizability:  78.079  -0.001  41.617  -0.047   0.000  41.632
 Approx polarizability:  96.402  -0.005  49.662  -0.095   0.000  49.675

 ******    2 imaginary frequencies (negative Signs) ******

                      1                      2                      3
                      A                      A                      A
 Frequencies --    -55.6827               -54.1822                68.5473
 Red. masses --      3.5455                 3.5542                11.9026
 Frc consts  --      0.0065                 0.0061                 0.0330
 IR Inten    --     20.6312                20.6203                20.6650

                      4                      5                      6
                      A                      A                      A
 Frequencies --    371.8092               372.4228               920.9647
 Red. masses --      3.5687                 3.5709                 4.7320
 Frc consts  --      0.2907                 0.2918                 2.3647
 IR Inten    --      1.3506                 1.3414                 9.3019

                      7                      8                      9
                      A                      A                      A
 Frequencies --   1023.7164              1024.8221              1369.3222
 Red. masses --      1.5069                 1.5044                 1.2250
 Frc consts  --      0.9304                 0.9309                 1.3533
 IR Inten    --      1.3019                 1.2914                31.9155

                     10                     11                     12
                      A                      A                      A
 Frequencies --   1451.8350              1452.1024              2348.8263
 Red. masses --      1.0400                 1.0399                12.5221
 Frc consts  --      1.2916                 1.2920                40.7034
 IR Inten    --     13.4985                13.5112                43.5010

                     13                     14                     15
                      A                      A                      A
 Frequencies --   3080.3884              3163.0143              3163.7175
 Red. masses --      1.0336                 1.1032                 1.1032
 Frc consts  --      5.7784                 6.5030                 6.5057
 IR Inten    --      1.1487                 0.1441                 0.1741

 - Thermochemistry -
 -------------------
 Temperature   298.150 Kelvin.  Pressure   1.00000 Atm.
 Atom     1 has atomic number  6 and mass  12.00000

 Molecular mass:    75.99540 amu.
 Principal axes and moments of inertia in atomic units:
                           1         2         3
     Eigenvalues --    11.331281758.240451758.24337
           X            1.00000   0.00003  -0.00042
           Y            0.00000   0.99750   0.07066
           Z            0.00042  -0.07066   0.99750
 This molecule is an asymmetric top.
 Rotational symmetry number  1.
 Rotational temperatures (Kelvin)      7.64379     0.04926     0.04926
 Rotational constants (GHZ):         159.27073     1.02645     1.02645
    2 imaginary frequencies ignored.
 Zero-point vibrational energy     118499.0 (Joules/Mol)
                                   28.32194 (Kcal/Mol)
 Warning -- explicit consideration of   3 degrees of freedom as
           vibrations may cause significant error
 Vibrational temperatures:     98.62   534.95   535.83  1325.06  1472.90
          (Kelvin)           1474.49  1970.15  2088.87  2089.25  3379.44
                             4431.99  4550.87  4551.88

 Zero-point correction=                           0.045134 (Hartree/Particle)
 Thermal correction to Energy=                    0.049576
 Thermal correction to Enthalpy=                  0.050520
 Thermal correction to Gibbs Free Energy=         0.016953
 Sum of electronic and zero-point Energies=           -593.014453
 Sum of electronic and thermal Energies=              -593.010011
 Sum of electronic and thermal Enthalpies=            -593.009067
 Sum of electronic and thermal Free Energies=         -593.042634

                     E (Thermal)             CV                S
                      KCal/Mol        Cal/Mol-Kelvin    Cal/Mol-Kelvin
 Total                   31.109             12.462             70.648
 Electronic               0.000              0.000              0.000
 Translational            0.889              2.981             38.900
 Rotational               0.889              2.981             25.063
 Vibrational             29.332              6.501              6.684
 Vibration     1          0.598              1.969              4.195
 Vibration     2          0.744              1.530              1.072
 Vibration     3          0.744              1.529              1.070

 Normal termination of Gaussian 16 at Sun Oct 13 09:46:34 2024.
