 Gaussian 16, Revision B.01,
 Gaussian 16:  ES64L-G16RevB.01 20-Dec-2017

 ---------------------------------------------------------------------
 #p b3lyp 6-31++g(d,p) scf=verytight NoSymm freq=noraman int=ultrafine
 ---------------------------------------------------------------------

 ------------------------
 RxCoord=-9.48556 DE=0.13
 ------------------------
 Symbolic Z-matrix:
 Charge = -1 Multiplicity = 1

                          Input orientation:
 ---------------------------------------------------------------------
 Center     Atomic      Atomic             Coordinates (Angstroms)
 Number     Number       Type             X           Y           Z
 ---------------------------------------------------------------------
      1          6           0        0.916095    0.000022    0.007126
      2         17           0       -2.591638    0.000019   -0.002459
      3          1           0        0.532271    0.002204   -1.015050
      4          1           0        0.540387    0.886059    0.522776
      5          1           0        0.540448   -0.888506    0.518719
      6          6           0        2.374034   -0.000292    0.000734
      7          7           0        3.536318    0.000202   -0.002497
 ---------------------------------------------------------------------

 SCF Done:  E(RB3LYP) =  -593.059631449     A.U. after   13 cycles

 Alpha  occ. eigenvalues -- -101.25384 -14.23500 -10.13226 -10.10591  -9.16712
 Alpha  occ. eigenvalues --   -6.92492  -6.92492  -6.92492  -0.80449  -0.65173
 Alpha  occ. eigenvalues --   -0.50426  -0.38928  -0.33560  -0.33538  -0.26481
 Alpha  occ. eigenvalues --   -0.22380  -0.22376  -0.05181  -0.05047  -0.05046
 Alpha virt. eigenvalues --    0.09715   0.13080   0.13096   0.14076   0.14247
 Alpha virt. eigenvalues --    0.14253   0.19699   0.20196   0.20208   0.21930
 Alpha virt. eigenvalues --    0.22662   0.22684   0.24751   0.25805   0.25818

 Mulliken charges:
               1
     1  C   -0.105624
     2  Cl  -0.941279
     3  H    0.213325
     4  H    0.212311
     5  H    0.212228
     6  C   -0.019036
     7  N   -0.571925
 Sum of Mulliken charges =  -1.00000

 Dipole moment (field-independent basis, Debye):
    X=              6.8217    Y=             -0.0006    Z=              0.0252  Tot=              6.8217
 Quadrupole moment (field-independent basis, Debye-Ang):
   XX=            -92.0059   YY=            -35.4644   ZZ=            -35.4661
   XY=             -0.0016   XZ=              0.0054   YZ=              0.0003

  Exact polarizability:  78.104   0.005  41.619  -0.037  -0.000  41.633
 Approx polarizability:  96.435   0.015  49.682  -0.074  -0.000  49.696

 ******    2 imaginary frequencies (negative Signs) ******

                      1                      2                      3
                      A                      A                      A
 Frequencies --    -55.9141               -54.6083                70.3430
 Red. masses --      3.5474                 3.5548                11.9067
 Frc consts  --      0.0065                 0.0062                 0.0347
 IR Inten    --     20.6437                20.6343                20.6571

                      4                      5                      6
                      A                      A                      A
 Frequencies --    371.8214               372.3323               921.0003
 Red. masses --      3.5660                 3.5682                 4.7336
 Frc consts  --      0.2905                 0.2914                 2.3657
 IR Inten    --      1.3500                 1.3449                 9.3703

                      7                      8                      9
                      A                      A                      A
 Frequencies --   1023.5366              1024.5480              1368.8421
 Red. masses --      1.5071                 1.5048                 1.2249
 Frc consts  --      0.9302                 0.9306                 1.3522
 IR Inten    --      1.3063                 1.2899                32.1790

                     10                     11                     12
                      A                      A                      A
 Frequencies --   1451.5583              1451.9353              2348.8526
 Red. masses --      1.0400                 1.0400                12.5217
 Frc consts  --      1.2911                 1.2917                40.7028
 IR Inten    --     13.4821                13.4756                43.7307

                     13                     14                     15
                      A                      A                      A
 Frequencies --   3080.5036              3163.1745              3163.7703
 Red. masses --      1.0336                 1.1032                 1.1032
 Frc consts  --      5.7788                 6.5034                 6.5061
 IR Inten    --      1.1716                 0.1624                 0.1609

 - Thermochemistry -
 -------------------
 Temperature   298.150 Kelvin.  Pressure   1.00000 Atm.
 Atom     1 has atomic number  6 and mass  12.00000

 Molecular mass:    75.99540 amu.
 Principal axes and moments of inertia in atomic units:
                           1         2         3
     Eigenvalues --    11.329851750.360101750.36393
           X            1.00000  -0.00003  -0.00045
           Y           -0.00000   0.99722  -0.07446
           Z            0.00045   0.07446   0.99722
 This molecule is an asymmetric top.
 Rotational symmetry number  1.
 Rotational temperatures (Kelvin)      7.64475     0.04948     0.04948
 Rotational constants (GHZ):         159.29079     1.03107     1.03107
    2 imaginary frequencies ignored.
 Zero-point vibrational energy     118503.4 (Joules/Mol)
                                   28.32299 (Kcal/Mol)
 Warning -- explicit consideration of   3 degrees of freedom as
           vibrations may cause significant error
 Vibrational temperatures:    101.21   534.97   535.70  1325.11  1472.64
          (Kelvin)           1474.10  1969.46  2088.47  2089.01  3379.48
                             4432.16  4551.10  4551.96

 Zero-point correction=                           0.045136 (Hartree/Particle)
 Thermal correction to Energy=                    0.049574
 Thermal correction to Enthalpy=                  0.050518
 Thermal correction to Gibbs Free Energy=         0.016979
 Sum of electronic and zero-point Energies=           -593.014496
 Sum of electronic and thermal Energies=              -593.010058
 Sum of electronic and thermal Enthalpies=            -593.009114
 Sum of electronic and thermal Free Energies=         -593.042652

                     E (Thermal)             CV                S
                      KCal/Mol        Cal/Mol-Kelvin    Cal/Mol-Kelvin
 Total                   31.108             12.462             70.588
 Electronic               0.000              0.000              0.000
 Translational            0.889              2.981             38.900
 Rotational               0.889              2.981             25.054
 Vibrational             29.331              6.501              6.634
 Vibration     1          0.598              1.968              4.144
 Vibration     2          0.744              1.530              1.072
 Vibration     3          0.744              1.529              1.070

 Normal termination of Gaussian 16 at Sun Oct 13 09:46:35 2024.
