 Gaussian 16, Revision B.01,
 Gaussian 16:  ES64L-G16RevB.01 20-Dec-2017

 ---------------------------------------------------------------------
 #p b3lyp 6-31++g(d,p) scf=verytight NoSymm freq=noraman int=ultrafine
 ---------------------------------------------------------------------

 ------------------------
 RxCoord=-9.38567 DE=0.16
 ------------------------
 Symbolic Z-matrix:
 Charge = -1 Multiplicity = 1

                          Input orientation:
 ---------------------------------------------------------------------
 Center     Atomic      Atomic             Coordinates (Angstroms)
 Number     Number       Type             X           Y           Z
 ---------------------------------------------------------------------
      1          6           0        0.910573   -0.000315    0.006539
      2         17           0       -2.585104    0.000016   -0.002461
      3          1           0        0.527472    0.002112   -1.015761
      4          1           0        0.534344    0.885795    0.522014
      5          1           0        0.534647   -0.888563    0.518172
      6          6           0        2.368439    0.000629    0.001548
      7          7           0        3.530726   -0.000262   -0.002543
 ---------------------------------------------------------------------

 SCF Done:  E(RB3LYP) =  -593.059673100     A.U. after   13 cycles

 Alpha  occ. eigenvalues -- -101.25390 -14.23471 -10.13196 -10.10548  -9.16718
 Alpha  occ. eigenvalues --   -6.92498  -6.92498  -6.92497  -0.80421  -0.65137
 Alpha  occ. eigenvalues --   -0.50436  -0.38891  -0.33520  -0.33504  -0.26454
 Alpha  occ. eigenvalues --   -0.22349  -0.22346  -0.05189  -0.05056  -0.05056
 Alpha virt. eigenvalues --    0.09733   0.13106   0.13119   0.14087   0.14269
 Alpha virt. eigenvalues --    0.14273   0.19709   0.20213   0.20223   0.21931
 Alpha virt. eigenvalues --    0.22687   0.22703   0.24778   0.25813   0.25824

 Mulliken charges:
               1
     1  C   -0.101715
     2  Cl  -0.940588
     3  H    0.213592
     4  H    0.212451
     5  H    0.212573
     6  C   -0.024142
     7  N   -0.572171
 Sum of Mulliken charges =  -1.00000

 Dipole moment (field-independent basis, Debye):
    X=              6.7852    Y=              0.0003    Z=              0.0249  Tot=              6.7852
 Quadrupole moment (field-independent basis, Debye-Ang):
   XX=            -91.8152   YY=            -35.4638   ZZ=            -35.4643
   XY=              0.0020   XZ=              0.0046   YZ=             -0.0006

  Exact polarizability:  78.128  -0.009  41.621  -0.045   0.000  41.633
 Approx polarizability:  96.468  -0.028  49.704  -0.100   0.001  49.714

 ******    2 imaginary frequencies (negative Signs) ******

                      1                      2                      3
                      A                      A                      A
 Frequencies --    -56.4107               -54.9097                72.1449
 Red. masses --      3.5459                 3.5556                11.9108
 Frc consts  --      0.0066                 0.0063                 0.0365
 IR Inten    --     20.6526                20.6476                20.6486

                      4                      5                      6
                      A                      A                      A
 Frequencies --    371.7146               372.3524               921.0997
 Red. masses --      3.5644                 3.5657                 4.7347
 Frc consts  --      0.2902                 0.2913                 2.3668
 IR Inten    --      1.3602                 1.3439                 9.4395

                      7                      8                      9
                      A                      A                      A
 Frequencies --   1023.2558              1024.3135              1368.3022
 Red. masses --      1.5075                 1.5052                 1.2247
 Frc consts  --      0.9300                 0.9305                 1.3510
 IR Inten    --      1.3033                 1.2960                32.4333

                     10                     11                     12
                      A                      A                      A
 Frequencies --   1451.3777              1451.6140              2348.7918
 Red. masses --      1.0400                 1.0400                12.5211
 Frc consts  --      1.2908                 1.2912                40.6989
 IR Inten    --     13.4560                13.4467                43.9682

                     13                     14                     15
                      A                      A                      A
 Frequencies --   3080.7739              3163.0220              3164.5662
 Red. masses --      1.0336                 1.1032                 1.1032
 Frc consts  --      5.7798                 6.5028                 6.5094
 IR Inten    --      1.1912                 0.1567                 0.1777

 - Thermochemistry -
 -------------------
 Temperature   298.150 Kelvin.  Pressure   1.00000 Atm.
 Atom     1 has atomic number  6 and mass  12.00000

 Molecular mass:    75.99540 amu.
 Principal axes and moments of inertia in atomic units:
                           1         2         3
     Eigenvalues --    11.328551742.526481742.52928
           X            1.00000   0.00012  -0.00047
           Y           -0.00000   0.97093   0.23934
           Z            0.00048  -0.23934   0.97093
 This molecule is an asymmetric top.
 Rotational symmetry number  1.
 Rotational temperatures (Kelvin)      7.64563     0.04971     0.04971
 Rotational constants (GHZ):         159.30910     1.03570     1.03570
    2 imaginary frequencies ignored.
 Zero-point vibrational energy     118510.0 (Joules/Mol)
                                   28.32458 (Kcal/Mol)
 Warning -- explicit consideration of   3 degrees of freedom as
           vibrations may cause significant error
 Vibrational temperatures:    103.80   534.81   535.73  1325.26  1472.24
          (Kelvin)           1473.76  1968.68  2088.21  2088.55  3379.39
                             4432.55  4550.88  4553.10

 Zero-point correction=                           0.045138 (Hartree/Particle)
 Thermal correction to Energy=                    0.049573
 Thermal correction to Enthalpy=                  0.050517
 Thermal correction to Gibbs Free Energy=         0.017006
 Sum of electronic and zero-point Energies=           -593.014535
 Sum of electronic and thermal Energies=              -593.010100
 Sum of electronic and thermal Enthalpies=            -593.009156
 Sum of electronic and thermal Free Energies=         -593.042667

                     E (Thermal)             CV                S
                      KCal/Mol        Cal/Mol-Kelvin    Cal/Mol-Kelvin
 Total                   31.107             12.462             70.530
 Electronic               0.000              0.000              0.000
 Translational            0.889              2.981             38.900
 Rotational               0.889              2.981             25.045
 Vibrational             29.330              6.501              6.585
 Vibration     1          0.598              1.967              4.094
 Vibration     2          0.743              1.530              1.073
 Vibration     3          0.744              1.529              1.070

 Normal termination of Gaussian 16 at Sun Oct 13 09:46:35 2024.
