 Gaussian 16, Revision B.01,
 Gaussian 16:  ES64L-G16RevB.01 20-Dec-2017

 ---------------------------------------------------------------------
 #p b3lyp 6-31++g(d,p) scf=verytight NoSymm freq=noraman int=ultrafine
 ---------------------------------------------------------------------

 ------------------------
 RxCoord=-9.28596 DE=0.19
 ------------------------
 Symbolic Z-matrix:
 Charge = -1 Multiplicity = 1

                          Input orientation:
 ---------------------------------------------------------------------
 Center     Atomic      Atomic             Coordinates (Angstroms)
 Number     Number       Type             X           Y           Z
 ---------------------------------------------------------------------
      1          6           0        0.905119    0.000362    0.006690
      2         17           0       -2.578634    0.000014   -0.002443
      3          1           0        0.522375    0.002250   -1.015892
      4          1           0        0.528851    0.886168    0.521752
      5          1           0        0.528772   -0.888141    0.517749
      6          6           0        2.362913   -0.001075    0.000506
      7          7           0        3.525163    0.000556   -0.001765
 ---------------------------------------------------------------------

 SCF Done:  E(RB3LYP) =  -593.059712085     A.U. after   13 cycles

 Alpha  occ. eigenvalues -- -101.25395 -14.23441 -10.13165 -10.10503  -9.16724
 Alpha  occ. eigenvalues --   -6.92505  -6.92504  -6.92503  -0.80395  -0.65102
 Alpha  occ. eigenvalues --   -0.50446  -0.38854  -0.33487  -0.33464  -0.26428
 Alpha  occ. eigenvalues --   -0.22322  -0.22315  -0.05196  -0.05066  -0.05065
 Alpha virt. eigenvalues --    0.09750   0.13128   0.13147   0.14098   0.14288
 Alpha virt. eigenvalues --    0.14296   0.19719   0.20229   0.20241   0.21933
 Alpha virt. eigenvalues --    0.22699   0.22733   0.24804   0.25820   0.25832

 Mulliken charges:
               1
     1  C   -0.098011
     2  Cl  -0.939906
     3  H    0.213620
     4  H    0.213005
     5  H    0.212729
     6  C   -0.028987
     7  N   -0.572451
 Sum of Mulliken charges =  -1.00000

 Dipole moment (field-independent basis, Debye):
    X=              6.7491    Y=             -0.0012    Z=              0.0229  Tot=              6.7492
 Quadrupole moment (field-independent basis, Debye-Ang):
   XX=            -91.6263   YY=            -35.4615   ZZ=            -35.4637
   XY=             -0.0044   XZ=             -0.0022   YZ=              0.0009

  Exact polarizability:  78.148   0.017  41.621  -0.025  -0.001  41.633
 Approx polarizability:  96.493   0.050  49.720  -0.045  -0.002  49.734

 ******    2 imaginary frequencies (negative Signs) ******

                      1                      2                      3
                      A                      A                      A
 Frequencies --    -56.9229               -55.8937                73.9479
 Red. masses --      3.5481                 3.5541                11.9154
 Frc consts  --      0.0068                 0.0065                 0.0384
 IR Inten    --     20.6676                20.6614                20.6393

                      4                      5                      6
                      A                      A                      A
 Frequencies --    371.5243               371.9378               921.1962
 Red. masses --      3.5610                 3.5620                 4.7361
 Frc consts  --      0.2896                 0.2903                 2.3680
 IR Inten    --      1.3589                 1.3496                 9.5083

                      7                      8                      9
                      A                      A                      A
 Frequencies --   1023.0223              1023.8414              1367.6923
 Red. masses --      1.5079                 1.5059                 1.2246
 Frc consts  --      0.9298                 0.9301                 1.3497
 IR Inten    --      1.3121                 1.2915                32.6885

                     10                     11                     12
                      A                      A                      A
 Frequencies --   1450.9225              1451.4905              2349.0570
 Red. masses --      1.0400                 1.0401                12.5207
 Frc consts  --      1.2899                 1.2910                40.7066
 IR Inten    --     13.4490                13.4032                44.1985

                     13                     14                     15
                      A                      A                      A
 Frequencies --   3081.3795              3163.2605              3165.6535
 Red. masses --      1.0336                 1.1031                 1.1033
 Frc consts  --      5.7821                 6.5035                 6.5141
 IR Inten    --      1.2141                 0.1715                 0.1677

 - Thermochemistry -
 -------------------
 Temperature   298.150 Kelvin.  Pressure   1.00000 Atm.
 Atom     1 has atomic number  6 and mass  12.00000

 Molecular mass:    75.99540 amu.
 Principal axes and moments of inertia in atomic units:
                           1         2         3
     Eigenvalues --    11.326471734.782271734.78668
           X            1.00000  -0.00010  -0.00049
           Y           -0.00000   0.97835  -0.20693
           Z            0.00050   0.20693   0.97835
 This molecule is an asymmetric top.
 Rotational symmetry number  1.
 Rotational temperatures (Kelvin)      7.64704     0.04993     0.04993
 Rotational constants (GHZ):         159.33843     1.04033     1.04032
    2 imaginary frequencies ignored.
 Zero-point vibrational energy     118519.6 (Joules/Mol)
                                   28.32686 (Kcal/Mol)
 Warning -- explicit consideration of   3 degrees of freedom as
           vibrations may cause significant error
 Vibrational temperatures:    106.39   534.54   535.14  1325.40  1471.90
          (Kelvin)           1473.08  1967.80  2087.55  2088.37  3379.77
                             4433.42  4551.23  4554.67

 Zero-point correction=                           0.045142 (Hartree/Particle)
 Thermal correction to Energy=                    0.049574
 Thermal correction to Enthalpy=                  0.050518
 Thermal correction to Gibbs Free Energy=         0.017033
 Sum of electronic and zero-point Energies=           -593.014570
 Sum of electronic and thermal Energies=              -593.010139
 Sum of electronic and thermal Enthalpies=            -593.009194
 Sum of electronic and thermal Free Energies=         -593.042679

                     E (Thermal)             CV                S
                      KCal/Mol        Cal/Mol-Kelvin    Cal/Mol-Kelvin
 Total                   31.108             12.464             70.475
 Electronic               0.000              0.000              0.000
 Translational            0.889              2.981             38.900
 Rotational               0.889              2.981             25.036
 Vibrational             29.330              6.502              6.539
 Vibration     1          0.599              1.966              4.045
 Vibration     2          0.743              1.531              1.073
 Vibration     3          0.744              1.530              1.072

 Normal termination of Gaussian 16 at Sun Oct 13 09:46:36 2024.
