 Gaussian 16, Revision B.01,
 Gaussian 16:  ES64L-G16RevB.01 20-Dec-2017

 ---------------------------------------------------------------------
 #p b3lyp 6-31++g(d,p) scf=verytight NoSymm freq=noraman int=ultrafine
 ---------------------------------------------------------------------

 ------------------------
 RxCoord=-9.18626 DE=0.21
 ------------------------
 Symbolic Z-matrix:
 Charge = -1 Multiplicity = 1

                          Input orientation:
 ---------------------------------------------------------------------
 Center     Atomic      Atomic             Coordinates (Angstroms)
 Number     Number       Type             X           Y           Z
 ---------------------------------------------------------------------
      1          6           0        0.899818   -0.000621    0.005748
      2         17           0       -2.572277    0.000021   -0.002401
      3          1           0        0.517553    0.001854   -1.016621
      4          1           0        0.522650    0.885389    0.520853
      5          1           0        0.523192   -0.888464    0.517141
      6          6           0        2.357441    0.001431    0.002279
      7          7           0        3.519714   -0.000658   -0.002421
 ---------------------------------------------------------------------

 SCF Done:  E(RB3LYP) =  -593.059751832     A.U. after   13 cycles

 Alpha  occ. eigenvalues -- -101.25401 -14.23413 -10.13136 -10.10459  -9.16730
 Alpha  occ. eigenvalues --   -6.92511  -6.92511  -6.92509  -0.80366  -0.65068
 Alpha  occ. eigenvalues --   -0.50456  -0.38822  -0.33444  -0.33432  -0.26403
 Alpha  occ. eigenvalues --   -0.22291  -0.22286  -0.05204  -0.05075  -0.05075
 Alpha virt. eigenvalues --    0.09768   0.13154   0.13166   0.14109   0.14310
 Alpha virt. eigenvalues --    0.14315   0.19729   0.20247   0.20256   0.21934
 Alpha virt. eigenvalues --    0.22728   0.22749   0.24830   0.25828   0.25837

 Mulliken charges:
               1
     1  C   -0.094193
     2  Cl  -0.939211
     3  H    0.214065
     4  H    0.212880
     5  H    0.213201
     6  C   -0.034074
     7  N   -0.572668
 Sum of Mulliken charges =  -1.00000

 Dipole moment (field-independent basis, Debye):
    X=              6.7133    Y=              0.0010    Z=              0.0236  Tot=              6.7133
 Quadrupole moment (field-independent basis, Debye-Ang):
   XX=            -91.4411   YY=            -35.4619   ZZ=            -35.4614
   XY=              0.0051   XZ=              0.0025   YZ=             -0.0010

  Exact polarizability:  78.176  -0.021  41.622  -0.049   0.001  41.631
 Approx polarizability:  96.535  -0.064  49.741  -0.120   0.003  49.748

 ******    2 imaginary frequencies (negative Signs) ******

                      1                      2                      3
                      A                      A                      A
 Frequencies --    -57.6998               -55.9810                75.7478
 Red. masses --      3.5423                 3.5552                11.9195
 Frc consts  --      0.0069                 0.0066                 0.0403
 IR Inten    --     20.6703                20.6727                20.6320

                      4                      5                      6
                      A                      A                      A
 Frequencies --    371.3428               372.1718               921.5303
 Red. masses --      3.5604                 3.5604                 4.7348
 Frc consts  --      0.2893                 0.2906                 2.3690
 IR Inten    --      1.3781                 1.3467                 9.5700

                      7                      8                      9
                      A                      A                      A
 Frequencies --   1022.5029              1023.5854              1367.2112
 Red. masses --      1.5086                 1.5064                 1.2246
 Frc consts  --      0.9293                 0.9299                 1.3487
 IR Inten    --      1.3063                 1.3108                32.9965

                     10                     11                     12
                      A                      A                      A
 Frequencies --   1450.7115              1451.1263              2348.8754
 Red. masses --      1.0399                 1.0401                12.5199
 Frc consts  --      1.2895                 1.2905                40.6979
 IR Inten    --     13.4280                13.3835                44.4826

                     13                     14                     15
                      A                      A                      A
 Frequencies --   3081.8372              3163.2006              3166.6523
 Red. masses --      1.0336                 1.1031                 1.1032
 Frc consts  --      5.7842                 6.5029                 6.5181
 IR Inten    --      1.2386                 0.1675                 0.1867

 - Thermochemistry -
 -------------------
 Temperature   298.150 Kelvin.  Pressure   1.00000 Atm.
 Atom     1 has atomic number  6 and mass  12.00000

 Molecular mass:    75.99540 amu.
 Principal axes and moments of inertia in atomic units:
                           1         2         3
     Eigenvalues --    11.323131727.193661727.19572
           X            1.00000   0.00016  -0.00047
           Y           -0.00000   0.94965   0.31330
           Z            0.00050  -0.31330   0.94965
 This molecule is an asymmetric top.
 Rotational symmetry number  1.
 Rotational temperatures (Kelvin)      7.64929     0.05015     0.05015
 Rotational constants (GHZ):         159.38543     1.04490     1.04490
    2 imaginary frequencies ignored.
 Zero-point vibrational energy     118529.0 (Joules/Mol)
                                   28.32910 (Kcal/Mol)
 Warning -- explicit consideration of   3 degrees of freedom as
           vibrations may cause significant error
 Vibrational temperatures:    108.98   534.28   535.47  1325.88  1471.15
          (Kelvin)           1472.71  1967.11  2087.25  2087.85  3379.51
                             4434.08  4551.14  4556.11

 Zero-point correction=                           0.045145 (Hartree/Particle)
 Thermal correction to Energy=                    0.049574
 Thermal correction to Enthalpy=                  0.050518
 Thermal correction to Gibbs Free Energy=         0.017059
 Sum of electronic and zero-point Energies=           -593.014607
 Sum of electronic and thermal Energies=              -593.010178
 Sum of electronic and thermal Enthalpies=            -593.009234
 Sum of electronic and thermal Free Energies=         -593.042692

                     E (Thermal)             CV                S
                      KCal/Mol        Cal/Mol-Kelvin    Cal/Mol-Kelvin
 Total                   31.108             12.463             70.419
 Electronic               0.000              0.000              0.000
 Translational            0.889              2.981             38.900
 Rotational               0.889              2.981             25.027
 Vibrational             29.330              6.502              6.492
 Vibration     1          0.599              1.965              3.998
 Vibration     2          0.743              1.531              1.074
 Vibration     3          0.744              1.529              1.071

 Normal termination of Gaussian 16 at Sun Oct 13 09:46:46 2024.
