 Gaussian 16, Revision B.01,
 Gaussian 16:  ES64L-G16RevB.01 20-Dec-2017

 ---------------------------------------------------------------------
 #p b3lyp 6-31++g(d,p) scf=verytight NoSymm freq=noraman int=ultrafine
 ---------------------------------------------------------------------

 ------------------------
 RxCoord=-9.08643 DE=0.24
 ------------------------
 Symbolic Z-matrix:
 Charge = -1 Multiplicity = 1

                          Input orientation:
 ---------------------------------------------------------------------
 Center     Atomic      Atomic             Coordinates (Angstroms)
 Number     Number       Type             X           Y           Z
 ---------------------------------------------------------------------
      1          6           0        0.894395    0.000437    0.006197
      2         17           0       -2.565913    0.000005   -0.002354
      3          1           0        0.511797    0.002387   -1.016394
      4          1           0        0.517238    0.885969    0.520909
      5          1           0        0.516967   -0.887655    0.517085
      6          6           0        2.352063   -0.001160    0.000564
      7          7           0        3.514330    0.000556   -0.001470
 ---------------------------------------------------------------------

 SCF Done:  E(RB3LYP) =  -593.059794728     A.U. after   13 cycles

 Alpha  occ. eigenvalues -- -101.25407 -14.23384 -10.13107 -10.10416  -9.16737
 Alpha  occ. eigenvalues --   -6.92518  -6.92518  -6.92515  -0.80340  -0.65027
 Alpha  occ. eigenvalues --   -0.50467  -0.38789  -0.33404  -0.33387  -0.26377
 Alpha  occ. eigenvalues --   -0.22263  -0.22257  -0.05213  -0.05085  -0.05085
 Alpha virt. eigenvalues --    0.09786   0.13175   0.13194   0.14120   0.14328
 Alpha virt. eigenvalues --    0.14336   0.19739   0.20263   0.20273   0.21935
 Alpha virt. eigenvalues --    0.22744   0.22778   0.24855   0.25834   0.25845

 Mulliken charges:
               1
     1  C   -0.090594
     2  Cl  -0.938497
     3  H    0.214049
     4  H    0.213594
     5  H    0.213309
     6  C   -0.038983
     7  N   -0.572879
 Sum of Mulliken charges =  -1.00000

 Dipole moment (field-independent basis, Debye):
    X=              6.6770    Y=             -0.0010    Z=              0.0214  Tot=              6.6771
 Quadrupole moment (field-independent basis, Debye-Ang):
   XX=            -91.2552   YY=            -35.4605   ZZ=            -35.4617
   XY=             -0.0043   XZ=             -0.0049   YZ=              0.0007

  Exact polarizability:  78.208   0.017  41.619  -0.021  -0.001  41.632
 Approx polarizability:  96.577   0.052  49.755  -0.039  -0.003  49.770

 ******    2 imaginary frequencies (negative Signs) ******

                      1                      2                      3
                      A                      A                      A
 Frequencies --    -57.2996               -56.4106                77.6003
 Red. masses --      3.5488                 3.5544                11.9247
 Frc consts  --      0.0069                 0.0067                 0.0423
 IR Inten    --     20.6897                20.6857                20.6254

                      4                      5                      6
                      A                      A                      A
 Frequencies --    371.6081               371.9995               921.3322
 Red. masses --      3.5561                 3.5562                 4.7383
 Frc consts  --      0.2893                 0.2899                 2.3698
 IR Inten    --      1.3659                 1.3508                 9.6397

                      7                      8                      9
                      A                      A                      A
 Frequencies --   1022.4044              1023.0533              1366.7782
 Red. masses --      1.5086                 1.5070                 1.2243
 Frc consts  --      0.9291                 0.9293                 1.3475
 IR Inten    --      1.3225                 1.3065                33.3144

                     10                     11                     12
                      A                      A                      A
 Frequencies --   1450.4606              1450.9404              2348.8766
 Red. masses --      1.0400                 1.0401                12.5194
 Frc consts  --      1.2891                 1.2901                40.6964
 IR Inten    --     13.4105                13.3618                44.6962

                     13                     14                     15
                      A                      A                      A
 Frequencies --   3081.9956              3163.6261              3166.2018
 Red. masses --      1.0336                 1.1031                 1.1032
 Frc consts  --      5.7847                 6.5048                 6.5161
 IR Inten    --      1.2736                 0.1772                 0.1744

 - Thermochemistry -
 -------------------
 Temperature   298.150 Kelvin.  Pressure   1.00000 Atm.
 Atom     1 has atomic number  6 and mass  12.00000

 Molecular mass:    75.99540 amu.
 Principal axes and moments of inertia in atomic units:
                           1         2         3
     Eigenvalues --    11.319771719.647571719.64970
           X            1.00000  -0.00009  -0.00049
           Y           -0.00000   0.98426  -0.17670
           Z            0.00050   0.17670   0.98426
 This molecule is an asymmetric top.
 Rotational symmetry number  1.
 Rotational temperatures (Kelvin)      7.65156     0.05037     0.05037
 Rotational constants (GHZ):         159.43269     1.04948     1.04948
    2 imaginary frequencies ignored.
 Zero-point vibrational energy     118531.2 (Joules/Mol)
                                   28.32965 (Kcal/Mol)
 Warning -- explicit consideration of   3 degrees of freedom as
           vibrations may cause significant error
 Vibrational temperatures:    111.65   534.66   535.22  1325.59  1471.01
          (Kelvin)           1471.95  1966.49  2086.89  2087.58  3379.51
                             4434.30  4551.75  4555.46

 Zero-point correction=                           0.045146 (Hartree/Particle)
 Thermal correction to Energy=                    0.049571
 Thermal correction to Enthalpy=                  0.050515
 Thermal correction to Gibbs Free Energy=         0.017084
 Sum of electronic and zero-point Energies=           -593.014649
 Sum of electronic and thermal Energies=              -593.010224
 Sum of electronic and thermal Enthalpies=            -593.009280
 Sum of electronic and thermal Free Energies=         -593.042711

                     E (Thermal)             CV                S
                      KCal/Mol        Cal/Mol-Kelvin    Cal/Mol-Kelvin
 Total                   31.106             12.463             70.362
 Electronic               0.000              0.000              0.000
 Translational            0.889              2.981             38.900
 Rotational               0.889              2.981             25.018
 Vibrational             29.329              6.501              6.444
 Vibration     1          0.599              1.964              3.951
 Vibration     2          0.743              1.530              1.073
 Vibration     3          0.744              1.530              1.072

 Normal termination of Gaussian 16 at Sun Oct 13 09:46:47 2024.
