 Gaussian 16, Revision B.01,
 Gaussian 16:  ES64L-G16RevB.01 20-Dec-2017

 ---------------------------------------------------------------------
 #p b3lyp 6-31++g(d,p) scf=verytight NoSymm freq=noraman int=ultrafine
 ---------------------------------------------------------------------

 ------------------------
 RxCoord=-8.98652 DE=0.28
 ------------------------
 Symbolic Z-matrix:
 Charge = -1 Multiplicity = 1

                          Input orientation:
 ---------------------------------------------------------------------
 Center     Atomic      Atomic             Coordinates (Angstroms)
 Number     Number       Type             X           Y           Z
 ---------------------------------------------------------------------
      1          6           0        0.888961   -0.000342    0.005405
      2         17           0       -2.559458    0.000021   -0.002263
      3          1           0        0.506680    0.001893   -1.017019
      4          1           0        0.510938    0.885290    0.520165
      5          1           0        0.511344   -0.888001    0.516462
      6          6           0        2.346542    0.000752    0.001839
      7          7           0        3.508824   -0.000346   -0.001969
 ---------------------------------------------------------------------

 SCF Done:  E(RB3LYP) =  -593.059832599     A.U. after   13 cycles

 Alpha  occ. eigenvalues -- -101.25413 -14.23356 -10.13078 -10.10371  -9.16744
 Alpha  occ. eigenvalues --   -6.92524  -6.92524  -6.92521  -0.80311  -0.64990
 Alpha  occ. eigenvalues --   -0.50478  -0.38756  -0.33359  -0.33352  -0.26351
 Alpha  occ. eigenvalues --   -0.22231  -0.22228  -0.05221  -0.05095  -0.05095
 Alpha virt. eigenvalues --    0.09804   0.13202   0.13213   0.14131   0.14351
 Alpha virt. eigenvalues --    0.14355   0.19750   0.20281   0.20289   0.21936
 Alpha virt. eigenvalues --    0.22776   0.22791   0.24881   0.25842   0.25850

 Mulliken charges:
               1
     1  C   -0.086718
     2  Cl  -0.937777
     3  H    0.214442
     4  H    0.213569
     5  H    0.213725
     6  C   -0.044117
     7  N   -0.573124
 Sum of Mulliken charges =  -1.00000

 Dipole moment (field-independent basis, Debye):
    X=              6.6406    Y=              0.0004    Z=              0.0215  Tot=              6.6406
 Quadrupole moment (field-independent basis, Debye-Ang):
   XX=            -91.0684   YY=            -35.4605   ZZ=            -35.4598
   XY=              0.0027   XZ=             -0.0007   YZ=             -0.0004

  Exact polarizability:  78.238  -0.011  41.620  -0.039   0.001  41.630
 Approx polarizability:  96.620  -0.033  49.776  -0.095   0.002  49.785

 ******    2 imaginary frequencies (negative Signs) ******

                      1                      2                      3
                      A                      A                      A
 Frequencies --    -57.7080               -56.4537                79.5068
 Red. masses --      3.5472                 3.5558                11.9299
 Frc consts  --      0.0070                 0.0067                 0.0444
 IR Inten    --     20.6997                20.6991                20.6167

                      4                      5                      6
                      A                      A                      A
 Frequencies --    371.6185               372.1532               921.4684
 Red. masses --      3.5538                 3.5541                 4.7391
 Frc consts  --      0.2892                 0.2900                 2.3709
 IR Inten    --      1.3706                 1.3520                 9.7085

                      7                      8                      9
                      A                      A                      A
 Frequencies --   1022.0223              1022.8122              1366.3114
 Red. masses --      1.5091                 1.5074                 1.2242
 Frc consts  --      0.9287                 0.9291                 1.3465
 IR Inten    --      1.3227                 1.3180                33.6266

                     10                     11                     12
                      A                      A                      A
 Frequencies --   1450.3394              1450.5485              2348.7297
 Red. masses --      1.0400                 1.0401                12.5188
 Frc consts  --      1.2889                 1.2894                40.6891
 IR Inten    --     13.3724                13.3536                44.9608

                     13                     14                     15
                      A                      A                      A
 Frequencies --   3082.2652              3164.1198              3166.0996
 Red. masses --      1.0337                 1.1031                 1.1032
 Frc consts  --      5.7858                 6.5069                 6.5155
 IR Inten    --      1.3012                 0.1720                 0.1900

 - Thermochemistry -
 -------------------
 Temperature   298.150 Kelvin.  Pressure   1.00000 Atm.
 Atom     1 has atomic number  6 and mass  12.00000

 Molecular mass:    75.99540 amu.
 Principal axes and moments of inertia in atomic units:
                           1         2         3
     Eigenvalues --    11.316861711.991911711.99255
           X            1.00000   0.00013  -0.00047
           Y           -0.00000   0.96734   0.25349
           Z            0.00048  -0.25349   0.96734
 This molecule is an asymmetric top.
 Rotational symmetry number  1.
 Rotational temperatures (Kelvin)      7.65353     0.05059     0.05059
 Rotational constants (GHZ):         159.47361     1.05418     1.05418
    2 imaginary frequencies ignored.
 Zero-point vibrational energy     118537.9 (Joules/Mol)
                                   28.33125 (Kcal/Mol)
 Warning -- explicit consideration of   3 degrees of freedom as
           vibrations may cause significant error
 Vibrational temperatures:    114.39   534.68   535.45  1325.79  1470.46
          (Kelvin)           1471.60  1965.82  2086.71  2087.02  3379.30
                             4434.69  4552.46  4555.31

 Zero-point correction=                           0.045149 (Hartree/Particle)
 Thermal correction to Energy=                    0.049569
 Thermal correction to Enthalpy=                  0.050514
 Thermal correction to Gibbs Free Energy=         0.017109
 Sum of electronic and zero-point Energies=           -593.014684
 Sum of electronic and thermal Energies=              -593.010263
 Sum of electronic and thermal Enthalpies=            -593.009319
 Sum of electronic and thermal Free Energies=         -593.042723

                     E (Thermal)             CV                S
                      KCal/Mol        Cal/Mol-Kelvin    Cal/Mol-Kelvin
 Total                   31.105             12.462             70.305
 Electronic               0.000              0.000              0.000
 Translational            0.889              2.981             38.900
 Rotational               0.889              2.981             25.009
 Vibrational             29.328              6.501              6.396
 Vibration     1          0.600              1.963              3.903
 Vibration     2          0.743              1.530              1.073
 Vibration     3          0.744              1.529              1.071

 Normal termination of Gaussian 16 at Sun Oct 13 09:46:48 2024.
