 Gaussian 16, Revision B.01,
 Gaussian 16:  ES64L-G16RevB.01 20-Dec-2017

 ---------------------------------------------------------------------
 #p b3lyp 6-31++g(d,p) scf=verytight NoSymm freq=noraman int=ultrafine
 ---------------------------------------------------------------------

 ------------------------
 RxCoord=-8.88657 DE=0.31
 ------------------------
 Symbolic Z-matrix:
 Charge = -1 Multiplicity = 1

                          Input orientation:
 ---------------------------------------------------------------------
 Center     Atomic      Atomic             Coordinates (Angstroms)
 Number     Number       Type             X           Y           Z
 ---------------------------------------------------------------------
      1          6           0        0.883437    0.000155    0.005453
      2         17           0       -2.552928    0.000010   -0.002168
      3          1           0        0.501015    0.002211   -1.017048
      4          1           0        0.505432    0.885527    0.520075
      5          1           0        0.505375   -0.887515    0.516352
      6          6           0        2.340978   -0.000414    0.001003
      7          7           0        3.503253    0.000182   -0.001515
 ---------------------------------------------------------------------

 SCF Done:  E(RB3LYP) =  -593.059867308     A.U. after   13 cycles

 Alpha  occ. eigenvalues -- -101.25419 -14.23326 -10.13047 -10.10327  -9.16750
 Alpha  occ. eigenvalues --   -6.92531  -6.92531  -6.92527  -0.80283  -0.64951
 Alpha  occ. eigenvalues --   -0.50488  -0.38719  -0.33319  -0.33312  -0.26325
 Alpha  occ. eigenvalues --   -0.22201  -0.22198  -0.05229  -0.05105  -0.05105
 Alpha virt. eigenvalues --    0.09822   0.13225   0.13239   0.14142   0.14372
 Alpha virt. eigenvalues --    0.14377   0.19760   0.20297   0.20306   0.21937
 Alpha virt. eigenvalues --    0.22795   0.22816   0.24906   0.25848   0.25858

 Mulliken charges:
               1
     1  C   -0.082926
     2  Cl  -0.937051
     3  H    0.214553
     4  H    0.214024
     5  H    0.213915
     6  C   -0.049116
     7  N   -0.573398
 Sum of Mulliken charges =  -1.00000

 Dipole moment (field-independent basis, Debye):
    X=              6.6038    Y=             -0.0004    Z=              0.0200  Tot=              6.6038
 Quadrupole moment (field-independent basis, Debye-Ang):
   XX=            -90.8802   YY=            -35.4592   ZZ=            -35.4588
   XY=             -0.0013   XZ=             -0.0036   YZ=              0.0002

  Exact polarizability:  78.266   0.006  41.618  -0.026  -0.000  41.629
 Approx polarizability:  96.658   0.018  49.791  -0.057  -0.001  49.806

 ******    2 imaginary frequencies (negative Signs) ******

                      1                      2                      3
                      A                      A                      A
 Frequencies --    -57.7436               -57.0045                81.4807
 Red. masses --      3.5512                 3.5550                11.9361
 Frc consts  --      0.0070                 0.0068                 0.0467
 IR Inten    --     20.7186                20.7125                20.6060

                      4                      5                      6
                      A                      A                      A
 Frequencies --    371.7519               371.9805               921.4857
 Red. masses --      3.5503                 3.5511                 4.7414
 Frc consts  --      0.2891                 0.2895                 2.3721
 IR Inten    --      1.3630                 1.3584                 9.7819

                      7                      8                      9
                      A                      A                      A
 Frequencies --   1021.8860              1022.3868              1365.8095
 Red. masses --      1.5092                 1.5079                 1.2240
 Frc consts  --      0.9285                 0.9287                 1.3452
 IR Inten    --      1.3319                 1.3179                33.9259

                     10                     11                     12
                      A                      A                      A
 Frequencies --   1450.1165              1450.2681              2348.7574
 Red. masses --      1.0400                 1.0401                12.5182
 Frc consts  --      1.2886                 1.2889                40.6883
 IR Inten    --     13.3497                13.3255                45.2065

                     13                     14                     15
                      A                      A                      A
 Frequencies --   3082.5351              3164.9052              3165.7311
 Red. masses --      1.0336                 1.1031                 1.1032
 Frc consts  --      5.7868                 6.5103                 6.5139
 IR Inten    --      1.3302                 0.1830                 0.1833

 - Thermochemistry -
 -------------------
 Temperature   298.150 Kelvin.  Pressure   1.00000 Atm.
 Atom     1 has atomic number  6 and mass  12.00000

 Molecular mass:    75.99540 amu.
 Principal axes and moments of inertia in atomic units:
                           1         2         3
     Eigenvalues --    11.314541704.268801704.26918
           X            1.00000  -0.00045   0.00011
           Y           -0.00000   0.22236   0.97496
           Z            0.00046   0.97496  -0.22236
 This molecule is an asymmetric top.
 Rotational symmetry number  1.
 Rotational temperatures (Kelvin)      7.65510     0.05082     0.05082
 Rotational constants (GHZ):         159.50641     1.05895     1.05895
    2 imaginary frequencies ignored.
 Zero-point vibrational energy     118544.5 (Joules/Mol)
                                   28.33282 (Kcal/Mol)
 Warning -- explicit consideration of   3 degrees of freedom as
           vibrations may cause significant error
 Vibrational temperatures:    117.23   534.87   535.20  1325.81  1470.27
          (Kelvin)           1470.99  1965.10  2086.39  2086.61  3379.34
                             4435.08  4553.59  4554.78

 Zero-point correction=                           0.045151 (Hartree/Particle)
 Thermal correction to Energy=                    0.049568
 Thermal correction to Enthalpy=                  0.050512
 Thermal correction to Gibbs Free Energy=         0.017135
 Sum of electronic and zero-point Energies=           -593.014716
 Sum of electronic and thermal Energies=              -593.010299
 Sum of electronic and thermal Enthalpies=            -593.009355
 Sum of electronic and thermal Free Energies=         -593.042732

                     E (Thermal)             CV                S
                      KCal/Mol        Cal/Mol-Kelvin    Cal/Mol-Kelvin
 Total                   31.104             12.462             70.248
 Electronic               0.000              0.000              0.000
 Translational            0.889              2.981             38.900
 Rotational               0.889              2.981             25.000
 Vibrational             29.327              6.501              6.348
 Vibration     1          0.600              1.962              3.855
 Vibration     2          0.743              1.530              1.073
 Vibration     3          0.744              1.530              1.072

 Normal termination of Gaussian 16 at Sun Oct 13 09:46:49 2024.
