 Gaussian 16, Revision B.01,
 Gaussian 16:  ES64L-G16RevB.01 20-Dec-2017

 ---------------------------------------------------------------------
 #p b3lyp 6-31++g(d,p) scf=verytight NoSymm freq=noraman int=ultrafine
 ---------------------------------------------------------------------

 ------------------------
 RxCoord=-8.78660 DE=0.35
 ------------------------
 Symbolic Z-matrix:
 Charge = -1 Multiplicity = 1

                          Input orientation:
 ---------------------------------------------------------------------
 Center     Atomic      Atomic             Coordinates (Angstroms)
 Number     Number       Type             X           Y           Z
 ---------------------------------------------------------------------
      1          6           0        0.877918   -0.000119    0.004957
      2         17           0       -2.546371    0.000017   -0.002039
      3          1           0        0.495646    0.002030   -1.017471
      4          1           0        0.499519    0.885217    0.519603
      5          1           0        0.499697   -0.887564    0.515919
      6          6           0        2.335365    0.000248    0.001364
      7          7           0        3.497639   -0.000130   -0.001625
 ---------------------------------------------------------------------

 SCF Done:  E(RB3LYP) =  -593.059898071     A.U. after   13 cycles

 Alpha  occ. eigenvalues -- -101.25424 -14.23295 -10.13016 -10.10281  -9.16756
 Alpha  occ. eigenvalues --   -6.92537  -6.92537  -6.92533  -0.80254  -0.64914
 Alpha  occ. eigenvalues --   -0.50499  -0.38683  -0.33277  -0.33275  -0.26298
 Alpha  occ. eigenvalues --   -0.22169  -0.22168  -0.05237  -0.05115  -0.05114
 Alpha virt. eigenvalues --    0.09840   0.13251   0.13262   0.14153   0.14394
 Alpha virt. eigenvalues --    0.14398   0.19770   0.20314   0.20322   0.21938
 Alpha virt. eigenvalues --    0.22822   0.22835   0.24932   0.25856   0.25864

 Mulliken charges:
               1
     1  C   -0.079042
     2  Cl  -0.936322
     3  H    0.214824
     4  H    0.214180
     5  H    0.214226
     6  C   -0.054178
     7  N   -0.573688
 Sum of Mulliken charges =  -1.00000

 Dipole moment (field-independent basis, Debye):
    X=              6.5670    Y=              0.0001    Z=              0.0192  Tot=              6.5670
 Quadrupole moment (field-independent basis, Debye-Ang):
   XX=            -90.6923   YY=            -35.4584   ZZ=            -35.4570
   XY=              0.0011   XZ=             -0.0019   YZ=             -0.0001

  Exact polarizability:  78.294  -0.004  41.617  -0.031   0.000  41.627
 Approx polarizability:  96.697  -0.011  49.810  -0.073   0.001  49.823

 ******    2 imaginary frequencies (negative Signs) ******

                      1                      2                      3
                      A                      A                      A
 Frequencies --    -58.1447               -57.3599                83.5044
 Red. masses --      3.5514                 3.5561                11.9428
 Frc consts  --      0.0071                 0.0069                 0.0491
 IR Inten    --     20.7332                20.7280                20.5938

                      4                      5                      6
                      A                      A                      A
 Frequencies --    371.7230               371.9895               921.6420
 Red. masses --      3.5477                 3.5485                 4.7427
 Frc consts  --      0.2888                 0.2893                 2.3735
 IR Inten    --      1.3662                 1.3588                 9.8552

                      7                      8                      9
                      A                      A                      A
 Frequencies --   1021.6234              1022.1020              1365.2966
 Red. masses --      1.5095                 1.5083                 1.2238
 Frc consts  --      0.9282                 0.9284                 1.3440
 IR Inten    --      1.3332                 1.3260                34.2229

                     10                     11                     12
                      A                      A                      A
 Frequencies --   1449.8734              1449.9759              2348.7419
 Red. masses --      1.0400                 1.0401                12.5176
 Frc consts  --      1.2881                 1.2884                40.6857
 IR Inten    --     13.3095                13.3113                45.4743

                     13                     14                     15
                      A                      A                      A
 Frequencies --   3082.8517              3165.1095              3166.1443
 Red. masses --      1.0337                 1.1031                 1.1032
 Frc consts  --      5.7880                 6.5111                 6.5155
 IR Inten    --      1.3565                 0.1782                 0.1979

 - Thermochemistry -
 -------------------
 Temperature   298.150 Kelvin.  Pressure   1.00000 Atm.
 Atom     1 has atomic number  6 and mass  12.00000

 Molecular mass:    75.99540 amu.
 Principal axes and moments of inertia in atomic units:
                           1         2         3
     Eigenvalues --    11.312401696.523791696.52534
           X            1.00000  -0.00044  -0.00001
           Y           -0.00001  -0.03571   0.99936
           Z            0.00044   0.99936   0.03571
 This molecule is an asymmetric top.
 Rotational symmetry number  1.
 Rotational temperatures (Kelvin)      7.65655     0.05105     0.05105
 Rotational constants (GHZ):         159.53659     1.06379     1.06379
    2 imaginary frequencies ignored.
 Zero-point vibrational energy     118553.4 (Joules/Mol)
                                   28.33494 (Kcal/Mol)
 Warning -- explicit consideration of   3 degrees of freedom as
           vibrations may cause significant error
 Vibrational temperatures:    120.14   534.83   535.21  1326.04  1469.89
          (Kelvin)           1470.58  1964.36  2086.04  2086.19  3379.32
                             4435.54  4553.89  4555.38

 Zero-point correction=                           0.045155 (Hartree/Particle)
 Thermal correction to Energy=                    0.049568
 Thermal correction to Enthalpy=                  0.050512
 Thermal correction to Gibbs Free Energy=         0.017162
 Sum of electronic and zero-point Energies=           -593.014743
 Sum of electronic and thermal Energies=              -593.010330
 Sum of electronic and thermal Enthalpies=            -593.009386
 Sum of electronic and thermal Free Energies=         -593.042736

                     E (Thermal)             CV                S
                      KCal/Mol        Cal/Mol-Kelvin    Cal/Mol-Kelvin
 Total                   31.104             12.462             70.191
 Electronic               0.000              0.000              0.000
 Translational            0.889              2.981             38.900
 Rotational               0.889              2.981             24.991
 Vibrational             29.327              6.500              6.301
 Vibration     1          0.600              1.961              3.807
 Vibration     2          0.743              1.530              1.073
 Vibration     3          0.744              1.530              1.072

 Normal termination of Gaussian 16 at Sun Oct 13 09:46:58 2024.
