 Gaussian 16, Revision B.01,
 Gaussian 16:  ES64L-G16RevB.01 20-Dec-2017

 ---------------------------------------------------------------------
 #p b3lyp 6-31++g(d,p) scf=verytight NoSymm freq=noraman int=ultrafine
 ---------------------------------------------------------------------

 ------------------------
 RxCoord=-8.68662 DE=0.39
 ------------------------
 Symbolic Z-matrix:
 Charge = -1 Multiplicity = 1

                          Input orientation:
 ---------------------------------------------------------------------
 Center     Atomic      Atomic             Coordinates (Angstroms)
 Number     Number       Type             X           Y           Z
 ---------------------------------------------------------------------
      1          6           0        0.872381    0.000054    0.004742
      2         17           0       -2.539804    0.000012   -0.001906
      3          1           0        0.490087    0.002147   -1.017700
      4          1           0        0.493900    0.885237    0.519331
      5          1           0        0.493907   -0.887322    0.515643
      6          6           0        2.329752   -0.000141    0.001012
      7          7           0        3.492018    0.000039   -0.001413
 ---------------------------------------------------------------------

 SCF Done:  E(RB3LYP) =  -593.059925980     A.U. after   13 cycles

 Alpha  occ. eigenvalues -- -101.25430 -14.23265 -10.12984 -10.10235  -9.16762
 Alpha  occ. eigenvalues --   -6.92543  -6.92543  -6.92538  -0.80226  -0.64876
 Alpha  occ. eigenvalues --   -0.50510  -0.38646  -0.33238  -0.33236  -0.26271
 Alpha  occ. eigenvalues --   -0.22138  -0.22137  -0.05244  -0.05125  -0.05124
 Alpha virt. eigenvalues --    0.09857   0.13275   0.13287   0.14164   0.14416
 Alpha virt. eigenvalues --    0.14420   0.19781   0.20331   0.20339   0.21939
 Alpha virt. eigenvalues --    0.22843   0.22858   0.24958   0.25863   0.25871

 Mulliken charges:
               1
     1  C   -0.075196
     2  Cl  -0.935589
     3  H    0.214999
     4  H    0.214495
     5  H    0.214455
     6  C   -0.059172
     7  N   -0.573993
 Sum of Mulliken charges =  -1.00000

 Dipole moment (field-independent basis, Debye):
    X=              6.5302    Y=             -0.0001    Z=              0.0179  Tot=              6.5302
 Quadrupole moment (field-independent basis, Debye-Ang):
   XX=            -90.5048   YY=            -35.4572   ZZ=            -35.4555
   XY=             -0.0002   XZ=             -0.0026   YZ=              0.0001

  Exact polarizability:  78.321   0.002  41.614  -0.026  -0.000  41.625
 Approx polarizability:  96.735   0.006  49.827  -0.058  -0.000  49.841

 ******    2 imaginary frequencies (negative Signs) ******

                      1                      2                      3
                      A                      A                      A
 Frequencies --    -58.3695               -57.8688                85.5805
 Red. masses --      3.5540                 3.5563                11.9504
 Frc consts  --      0.0071                 0.0070                 0.0516
 IR Inten    --     20.7519                20.7437                20.5802

                      4                      5                      6
                      A                      A                      A
 Frequencies --    371.7702               371.8855               921.7563
 Red. masses --      3.5446                 3.5455                 4.7447
 Frc consts  --      0.2886                 0.2889                 2.3751
 IR Inten    --      1.3631                 1.3620                 9.9304

                      7                      8                      9
                      A                      A                      A
 Frequencies --   1021.4537              1021.7647              1364.7800
 Red. masses --      1.5096                 1.5088                 1.2236
 Frc consts  --      0.9280                 0.9281                 1.3428
 IR Inten    --      1.3385                 1.3297                34.5174

                     10                     11                     12
                      A                      A                      A
 Frequencies --   1449.6356              1449.6851              2348.7797
 Red. masses --      1.0401                 1.0401                12.5170
 Frc consts  --      1.2877                 1.2878                40.6850
 IR Inten    --     13.2788                13.2854                45.7372

                     13                     14                     15
                      A                      A                      A
 Frequencies --   3083.1654              3165.6832              3166.1803
 Red. masses --      1.0337                 1.1031                 1.1031
 Frc consts  --      5.7892                 6.5134                 6.5156
 IR Inten    --      1.3839                 0.1836                 0.2002

 - Thermochemistry -
 -------------------
 Temperature   298.150 Kelvin.  Pressure   1.00000 Atm.
 Atom     1 has atomic number  6 and mass  12.00000

 Molecular mass:    75.99540 amu.
 Principal axes and moments of inertia in atomic units:
                           1         2         3
     Eigenvalues --    11.310431688.788751688.79117
           X            1.00000  -0.00041   0.00001
           Y           -0.00001   0.00809   0.99997
           Z            0.00041   0.99997  -0.00809
 This molecule is an asymmetric top.
 Rotational symmetry number  1.
 Rotational temperatures (Kelvin)      7.65788     0.05129     0.05129
 Rotational constants (GHZ):         159.56429     1.06866     1.06866
    2 imaginary frequencies ignored.
 Zero-point vibrational energy     118562.6 (Joules/Mol)
                                   28.33714 (Kcal/Mol)
 Warning -- explicit consideration of   3 degrees of freedom as
           vibrations may cause significant error
 Vibrational temperatures:    123.13   534.89   535.06  1326.20  1469.64
          (Kelvin)           1470.09  1963.61  2085.70  2085.77  3379.37
                             4435.99  4554.71  4555.43

 Zero-point correction=                           0.045158 (Hartree/Particle)
 Thermal correction to Energy=                    0.049567
 Thermal correction to Enthalpy=                  0.050511
 Thermal correction to Gibbs Free Energy=         0.017188
 Sum of electronic and zero-point Energies=           -593.014768
 Sum of electronic and thermal Energies=              -593.010359
 Sum of electronic and thermal Enthalpies=            -593.009415
 Sum of electronic and thermal Free Energies=         -593.042738

                     E (Thermal)             CV                S
                      KCal/Mol        Cal/Mol-Kelvin    Cal/Mol-Kelvin
 Total                   31.104             12.461             70.134
 Electronic               0.000              0.000              0.000
 Translational            0.889              2.981             38.900
 Rotational               0.889              2.981             24.982
 Vibrational             29.326              6.500              6.253
 Vibration     1          0.601              1.959              3.759
 Vibration     2          0.743              1.530              1.072
 Vibration     3          0.744              1.530              1.072

 Normal termination of Gaussian 16 at Sun Oct 13 09:46:59 2024.
