 Gaussian 16, Revision B.01,
 Gaussian 16:  ES64L-G16RevB.01 20-Dec-2017

 ---------------------------------------------------------------------
 #p b3lyp 6-31++g(d,p) scf=verytight NoSymm freq=noraman int=ultrafine
 ---------------------------------------------------------------------

 ------------------------
 RxCoord=-8.58664 DE=0.43
 ------------------------
 Symbolic Z-matrix:
 Charge = -1 Multiplicity = 1

                          Input orientation:
 ---------------------------------------------------------------------
 Center     Atomic      Atomic             Coordinates (Angstroms)
 Number     Number       Type             X           Y           Z
 ---------------------------------------------------------------------
      1          6           0        0.866851   -0.000040    0.004343
      2         17           0       -2.533236    0.000015   -0.001767
      3          1           0        0.484640    0.002087   -1.018072
      4          1           0        0.488135    0.885074    0.518905
      5          1           0        0.488207   -0.887274    0.515229
      6          6           0        2.324128    0.000087    0.001076
      7          7           0        3.486390   -0.000069   -0.001388
 ---------------------------------------------------------------------

 SCF Done:  E(RB3LYP) =  -593.059950769     A.U. after   13 cycles

 Alpha  occ. eigenvalues -- -101.25435 -14.23234 -10.12952 -10.10190  -9.16768
 Alpha  occ. eigenvalues --   -6.92549  -6.92549  -6.92543  -0.80197  -0.64839
 Alpha  occ. eigenvalues --   -0.50521  -0.38608  -0.33199  -0.33197  -0.26243
 Alpha  occ. eigenvalues --   -0.22107  -0.22107  -0.05252  -0.05134  -0.05134
 Alpha virt. eigenvalues --    0.09875   0.13301   0.13311   0.14175   0.14439
 Alpha virt. eigenvalues --    0.14441   0.19791   0.20348   0.20355   0.21940
 Alpha virt. eigenvalues --    0.22867   0.22878   0.24983   0.25870   0.25878

 Mulliken charges:
               1
     1  C   -0.071329
     2  Cl  -0.934852
     3  H    0.215226
     4  H    0.214708
     5  H    0.214724
     6  C   -0.064169
     7  N   -0.574307
 Sum of Mulliken charges =  -1.00000

 Dipole moment (field-independent basis, Debye):
    X=              6.4934    Y=              0.0000    Z=              0.0168  Tot=              6.4934
 Quadrupole moment (field-independent basis, Debye-Ang):
   XX=            -90.3182   YY=            -35.4560   ZZ=            -35.4538
   XY=              0.0007   XZ=             -0.0017   YZ=             -0.0001

  Exact polarizability:  78.348  -0.002  41.612  -0.026   0.000  41.623
 Approx polarizability:  96.774  -0.005  49.844  -0.061   0.000  49.858

 ******    2 imaginary frequencies (negative Signs) ******

                      1                      2                      3
                      A                      A                      A
 Frequencies --    -58.6789               -58.2760                87.7024
 Red. masses --      3.5554                 3.5573                11.9585
 Frc consts  --      0.0072                 0.0071                 0.0542
 IR Inten    --     20.7698                20.7607                20.5656

                      4                      5                      6
                      A                      A                      A
 Frequencies --    371.7826               371.8646               921.9184
 Red. masses --      3.5418                 3.5427                 4.7465
 Frc consts  --      0.2884                 0.2886                 2.3769
 IR Inten    --      1.3636                 1.3624                10.0061

                      7                      8                      9
                      A                      A                      A
 Frequencies --   1021.2452              1021.4872              1364.2674
 Red. masses --      1.5098                 1.5092                 1.2234
 Frc consts  --      0.9277                 0.9278                 1.3416
 IR Inten    --      1.3417                 1.3361                34.8153

                     10                     11                     12
                      A                      A                      A
 Frequencies --   1449.3395              1449.4441              2348.7897
 Red. masses --      1.0401                 1.0401                12.5163
 Frc consts  --      1.2872                 1.2874                40.6833
 IR Inten    --     13.2508                13.2553                46.0104

                     13                     14                     15
                      A                      A                      A
 Frequencies --   3083.4879              3165.9155              3166.5990
 Red. masses --      1.0337                 1.1031                 1.1032
 Frc consts  --      5.7905                 6.5143                 6.5174
 IR Inten    --      1.4117                 0.1867                 0.2063

 - Thermochemistry -
 -------------------
 Temperature   298.150 Kelvin.  Pressure   1.00000 Atm.
 Atom     1 has atomic number  6 and mass  12.00000

 Molecular mass:    75.99540 amu.
 Principal axes and moments of inertia in atomic units:
                           1         2         3
     Eigenvalues --    11.308511681.069181681.07237
           X            1.00000  -0.00038   0.00000
           Y           -0.00001  -0.00472   0.99999
           Z            0.00038   0.99999   0.00472
 This molecule is an asymmetric top.
 Rotational symmetry number  1.
 Rotational temperatures (Kelvin)      7.65918     0.05152     0.05152
 Rotational constants (GHZ):         159.59144     1.07357     1.07357
    2 imaginary frequencies ignored.
 Zero-point vibrational energy     118572.9 (Joules/Mol)
                                   28.33961 (Kcal/Mol)
 Warning -- explicit consideration of   3 degrees of freedom as
           vibrations may cause significant error
 Vibrational temperatures:    126.18   534.91   535.03  1326.44  1469.34
          (Kelvin)           1469.69  1962.88  2085.28  2085.43  3379.38
                             4436.45  4555.05  4556.03

 Zero-point correction=                           0.045162 (Hartree/Particle)
 Thermal correction to Energy=                    0.049567
 Thermal correction to Enthalpy=                  0.050511
 Thermal correction to Gibbs Free Energy=         0.017215
 Sum of electronic and zero-point Energies=           -593.014789
 Sum of electronic and thermal Energies=              -593.010384
 Sum of electronic and thermal Enthalpies=            -593.009440
 Sum of electronic and thermal Free Energies=         -593.042735

                     E (Thermal)             CV                S
                      KCal/Mol        Cal/Mol-Kelvin    Cal/Mol-Kelvin
 Total                   31.104             12.461             70.077
 Electronic               0.000              0.000              0.000
 Translational            0.889              2.981             38.900
 Rotational               0.889              2.981             24.972
 Vibrational             29.326              6.499              6.205
 Vibration     1          0.601              1.958              3.711
 Vibration     2          0.743              1.530              1.072
 Vibration     3          0.744              1.530              1.072

 Normal termination of Gaussian 16 at Sun Oct 13 09:47:00 2024.
