 Gaussian 16, Revision B.01,
 Gaussian 16:  ES64L-G16RevB.01 20-Dec-2017

 ---------------------------------------------------------------------
 #p b3lyp 6-31++g(d,p) scf=verytight NoSymm freq=noraman int=ultrafine
 ---------------------------------------------------------------------

 ------------------------
 RxCoord=-8.48666 DE=0.48
 ------------------------
 Symbolic Z-matrix:
 Charge = -1 Multiplicity = 1

                          Input orientation:
 ---------------------------------------------------------------------
 Center     Atomic      Atomic             Coordinates (Angstroms)
 Number     Number       Type             X           Y           Z
 ---------------------------------------------------------------------
      1          6           0        0.861312    0.000029    0.004064
      2         17           0       -2.526665    0.000012   -0.001636
      3          1           0        0.479159    0.002137   -1.018370
      4          1           0        0.482450    0.885035    0.518551
      5          1           0        0.482446   -0.887128    0.514866
      6          6           0        2.318508   -0.000060    0.000906
      7          7           0        3.480764   -0.000007   -0.001256
 ---------------------------------------------------------------------

 SCF Done:  E(RB3LYP) =  -593.059972672     A.U. after   13 cycles

 Alpha  occ. eigenvalues -- -101.25440 -14.23203 -10.12920 -10.10144  -9.16773
 Alpha  occ. eigenvalues --   -6.92555  -6.92555  -6.92549  -0.80168  -0.64801
 Alpha  occ. eigenvalues --   -0.50532  -0.38571  -0.33159  -0.33157  -0.26216
 Alpha  occ. eigenvalues --   -0.22076  -0.22076  -0.05259  -0.05144  -0.05144
 Alpha virt. eigenvalues --    0.09893   0.13326   0.13335   0.14186   0.14461
 Alpha virt. eigenvalues --    0.14463   0.19801   0.20365   0.20372   0.21941
 Alpha virt. eigenvalues --    0.22890   0.22901   0.25009   0.25877   0.25884

 Mulliken charges:
               1
     1  C   -0.067483
     2  Cl  -0.934110
     3  H    0.215413
     4  H    0.214976
     5  H    0.214962
     6  C   -0.069128
     7  N   -0.574629
 Sum of Mulliken charges =  -1.00000

 Dipole moment (field-independent basis, Debye):
    X=              6.4566    Y=             -0.0000    Z=              0.0155  Tot=              6.4566
 Quadrupole moment (field-independent basis, Debye-Ang):
   XX=            -90.1322   YY=            -35.4546   ZZ=            -35.4523
   XY=              0.0002   XZ=             -0.0018   YZ=              0.0000

  Exact polarizability:  78.376   0.000  41.609  -0.023  -0.000  41.620
 Approx polarizability:  96.813   0.002  49.861  -0.053  -0.000  49.876

 ******    2 imaginary frequencies (negative Signs) ******

                      1                      2                      3
                      A                      A                      A
 Frequencies --    -58.8859               -58.6966                89.8706
 Red. masses --      3.5581                 3.5584                11.9673
 Frc consts  --      0.0073                 0.0072                 0.0569
 IR Inten    --     20.7897                20.7786                20.5502

                      4                      5                      6
                      A                      A                      A
 Frequencies --    371.8133               371.8468               922.0521
 Red. masses --      3.5397                 3.5388                 4.7488
 Frc consts  --      0.2883                 0.2883                 2.3787
 IR Inten    --      1.3637                 1.3608                10.0833

                      7                      8                      9
                      A                      A                      A
 Frequencies --   1021.0777              1021.2029              1363.7556
 Red. masses --      1.5099                 1.5095                 1.2231
 Frc consts  --      0.9275                 0.9275                 1.3403
 IR Inten    --      1.3467                 1.3407                35.1147

                     10                     11                     12
                      A                      A                      A
 Frequencies --   1449.0841              1449.1687              2348.8096
 Red. masses --      1.0401                 1.0401                12.5157
 Frc consts  --      1.2868                 1.2869                40.6819
 IR Inten    --     13.2205                13.2257                46.2821

                     13                     14                     15
                      A                      A                      A
 Frequencies --   3083.7955              3166.3716              3166.7628
 Red. masses --      1.0337                 1.1031                 1.1032
 Frc consts  --      5.7916                 6.5162                 6.5180
 IR Inten    --      1.4407                 0.1918                 0.2099

 - Thermochemistry -
 -------------------
 Temperature   298.150 Kelvin.  Pressure   1.00000 Atm.
 Atom     1 has atomic number  6 and mass  12.00000

 Molecular mass:    75.99540 amu.
 Principal axes and moments of inertia in atomic units:
                           1         2         3
     Eigenvalues --    11.306691673.368621673.37236
           X            1.00000  -0.00035   0.00001
           Y           -0.00001   0.00831   0.99997
           Z            0.00035   0.99997  -0.00831
 This molecule is an asymmetric top.
 Rotational symmetry number  1.
 Rotational temperatures (Kelvin)      7.66041     0.05176     0.05176
 Rotational constants (GHZ):         159.61708     1.07851     1.07851
    2 imaginary frequencies ignored.
 Zero-point vibrational energy     118583.5 (Joules/Mol)
                                   28.34213 (Kcal/Mol)
 Warning -- explicit consideration of   3 degrees of freedom as
           vibrations may cause significant error
 Vibrational temperatures:    129.30   534.96   535.00  1326.63  1469.10
          (Kelvin)           1469.28  1962.14  2084.91  2085.03  3379.41
                             4436.89  4555.70  4556.27

 Zero-point correction=                           0.045166 (Hartree/Particle)
 Thermal correction to Energy=                    0.049567
 Thermal correction to Enthalpy=                  0.050511
 Thermal correction to Gibbs Free Energy=         0.017242
 Sum of electronic and zero-point Energies=           -593.014807
 Sum of electronic and thermal Energies=              -593.010406
 Sum of electronic and thermal Enthalpies=            -593.009462
 Sum of electronic and thermal Free Energies=         -593.042730

                     E (Thermal)             CV                S
                      KCal/Mol        Cal/Mol-Kelvin    Cal/Mol-Kelvin
 Total                   31.104             12.460             70.020
 Electronic               0.000              0.000              0.000
 Translational            0.889              2.981             38.900
 Rotational               0.889              2.981             24.963
 Vibrational             29.326              6.498              6.157
 Vibration     1          0.602              1.956              3.663
 Vibration     2          0.744              1.530              1.072
 Vibration     3          0.744              1.530              1.072

 Normal termination of Gaussian 16 at Sun Oct 13 09:47:01 2024.
