 Gaussian 16, Revision B.01,
 Gaussian 16:  ES64L-G16RevB.01 20-Dec-2017

 ---------------------------------------------------------------------
 #p b3lyp 6-31++g(d,p) scf=verytight NoSymm freq=noraman int=ultrafine
 ---------------------------------------------------------------------

 ------------------------
 RxCoord=-8.38668 DE=0.52
 ------------------------
 Symbolic Z-matrix:
 Charge = -1 Multiplicity = 1

                          Input orientation:
 ---------------------------------------------------------------------
 Center     Atomic      Atomic             Coordinates (Angstroms)
 Number     Number       Type             X           Y           Z
 ---------------------------------------------------------------------
      1          6           0        0.855775   -0.000006    0.003736
      2         17           0       -2.520094    0.000012   -0.001513
      3          1           0        0.473743    0.002126   -1.018704
      4          1           0        0.476704    0.884931    0.518156
      5          1           0        0.476716   -0.887069    0.514458
      6          6           0        2.312884    0.000034    0.000915
      7          7           0        3.475135   -0.000053   -0.001210
 ---------------------------------------------------------------------

 SCF Done:  E(RB3LYP) =  -593.059991283     A.U. after   13 cycles

 Alpha  occ. eigenvalues -- -101.25445 -14.23172 -10.12888 -10.10097  -9.16779
 Alpha  occ. eigenvalues --   -6.92561  -6.92561  -6.92554  -0.80138  -0.64763
 Alpha  occ. eigenvalues --   -0.50542  -0.38532  -0.33121  -0.33117  -0.26188
 Alpha  occ. eigenvalues --   -0.22045  -0.22044  -0.05266  -0.05154  -0.05154
 Alpha virt. eigenvalues --    0.09911   0.13351   0.13360   0.14197   0.14483
 Alpha virt. eigenvalues --    0.14485   0.19811   0.20382   0.20388   0.21941
 Alpha virt. eigenvalues --    0.22913   0.22922   0.25034   0.25885   0.25891

 Mulliken charges:
               1
     1  C   -0.063638
     2  Cl  -0.933364
     3  H    0.215617
     4  H    0.215201
     5  H    0.215211
     6  C   -0.074065
     7  N   -0.574963
 Sum of Mulliken charges =  -1.00000

 Dipole moment (field-independent basis, Debye):
    X=              6.4198    Y=              0.0000    Z=              0.0145  Tot=              6.4198
 Quadrupole moment (field-independent basis, Debye-Ang):
   XX=            -89.9470   YY=            -35.4531   ZZ=            -35.4506
   XY=              0.0005   XZ=             -0.0014   YZ=             -0.0000

  Exact polarizability:  78.403  -0.001  41.606  -0.023   0.000  41.617
 Approx polarizability:  96.854  -0.003  49.878  -0.053   0.000  49.893

 ******    2 imaginary frequencies (negative Signs) ******

                      1                      2                      3
                      A                      A                      A
 Frequencies --    -59.1218               -59.0465                92.0796
 Red. masses --      3.5604                 3.5601                11.9767
 Frc consts  --      0.0073                 0.0073                 0.0598
 IR Inten    --     20.8094                20.7983                20.5341

                      4                      5                      6
                      A                      A                      A
 Frequencies --    371.8207               371.8886               922.2039
 Red. masses --      3.5367                 3.5357                 4.7513
 Frc consts  --      0.2881                 0.2881                 2.3807
 IR Inten    --      1.3628                 1.3594                10.1616

                      7                      8                      9
                      A                      A                      A
 Frequencies --   1020.8993              1020.9602              1363.2463
 Red. masses --      1.5100                 1.5098                 1.2229
 Frc consts  --      0.9272                 0.9272                 1.3390
 IR Inten    --      1.3511                 1.3464                35.4171

                     10                     11                     12
                      A                      A                      A
 Frequencies --   1448.8058              1448.9157              2348.8215
 Red. masses --      1.0401                 1.0401                12.5150
 Frc consts  --      1.2863                 1.2865                40.6801
 IR Inten    --     13.1911                13.1933                46.5595

                     13                     14                     15
                      A                      A                      A
 Frequencies --   3084.0950              3166.6502              3167.0986
 Red. masses --      1.0337                 1.1031                 1.1032
 Frc consts  --      5.7928                 6.5173                 6.5194
 IR Inten    --      1.4706                 0.1965                 0.2145

 - Thermochemistry -
 -------------------
 Temperature   298.150 Kelvin.  Pressure   1.00000 Atm.
 Atom     1 has atomic number  6 and mass  12.00000

 Molecular mass:    75.99540 amu.
 Principal axes and moments of inertia in atomic units:
                           1         2         3
     Eigenvalues --    11.304981665.686621665.69072
           X            1.00000  -0.00032   0.00001
           Y           -0.00001   0.00705   0.99998
           Z            0.00032   0.99998  -0.00705
 This molecule is an asymmetric top.
 Rotational symmetry number  1.
 Rotational temperatures (Kelvin)      7.66157     0.05200     0.05200
 Rotational constants (GHZ):         159.64120     1.08348     1.08348
    2 imaginary frequencies ignored.
 Zero-point vibrational energy     118594.7 (Joules/Mol)
                                   28.34481 (Kcal/Mol)
 Warning -- explicit consideration of   3 degrees of freedom as
           vibrations may cause significant error
 Vibrational temperatures:    132.48   534.97   535.06  1326.85  1468.85
          (Kelvin)           1468.93  1961.41  2084.51  2084.67  3379.43
                             4437.32  4556.10  4556.75

 Zero-point correction=                           0.045170 (Hartree/Particle)
 Thermal correction to Energy=                    0.049567
 Thermal correction to Enthalpy=                  0.050511
 Thermal correction to Gibbs Free Energy=         0.017269
 Sum of electronic and zero-point Energies=           -593.014821
 Sum of electronic and thermal Energies=              -593.010424
 Sum of electronic and thermal Enthalpies=            -593.009480
 Sum of electronic and thermal Free Energies=         -593.042722

                     E (Thermal)             CV                S
                      KCal/Mol        Cal/Mol-Kelvin    Cal/Mol-Kelvin
 Total                   31.104             12.459             69.963
 Electronic               0.000              0.000              0.000
 Translational            0.889              2.981             38.900
 Rotational               0.889              2.981             24.954
 Vibrational             29.326              6.497              6.110
 Vibration     1          0.602              1.955              3.615
 Vibration     2          0.744              1.530              1.072
 Vibration     3          0.744              1.530              1.072

 Normal termination of Gaussian 16 at Sun Oct 13 09:47:10 2024.
