 Gaussian 16, Revision B.01,
 Gaussian 16:  ES64L-G16RevB.01 20-Dec-2017

 ---------------------------------------------------------------------
 #p b3lyp 6-31++g(d,p) scf=verytight NoSymm freq=noraman int=ultrafine
 ---------------------------------------------------------------------

 ------------------------
 RxCoord=-8.28670 DE=0.56
 ------------------------
 Symbolic Z-matrix:
 Charge = -1 Multiplicity = 1

                          Input orientation:
 ---------------------------------------------------------------------
 Center     Atomic      Atomic             Coordinates (Angstroms)
 Number     Number       Type             X           Y           Z
 ---------------------------------------------------------------------
      1          6           0        0.850235    0.000031    0.003487
      2         17           0       -2.513523    0.000008   -0.001401
      3          1           0        0.468307    0.002165   -1.018977
      4          1           0        0.470992    0.884885    0.517811
      5          1           0        0.470965   -0.886975    0.514088
      6          6           0        2.307262   -0.000031    0.000829
      7          7           0        3.469506   -0.000026   -0.001130
 ---------------------------------------------------------------------

 SCF Done:  E(RB3LYP) =  -593.060006705     A.U. after   13 cycles

 Alpha  occ. eigenvalues -- -101.25449 -14.23140 -10.12855 -10.10051  -9.16785
 Alpha  occ. eigenvalues --   -6.92567  -6.92567  -6.92559  -0.80109  -0.64725
 Alpha  occ. eigenvalues --   -0.50553  -0.38494  -0.33081  -0.33078  -0.26160
 Alpha  occ. eigenvalues --   -0.22013  -0.22013  -0.05274  -0.05164  -0.05164
 Alpha virt. eigenvalues --    0.09929   0.13376   0.13384   0.14208   0.14506
 Alpha virt. eigenvalues --    0.14508   0.19822   0.20399   0.20405   0.21942
 Alpha virt. eigenvalues --    0.22935   0.22945   0.25059   0.25892   0.25898

 Mulliken charges:
               1
     1  C   -0.059813
     2  Cl  -0.932614
     3  H    0.215803
     4  H    0.215447
     5  H    0.215444
     6  C   -0.078961
     7  N   -0.575306
 Sum of Mulliken charges =  -1.00000

 Dipole moment (field-independent basis, Debye):
    X=              6.3830    Y=              0.0000    Z=              0.0135  Tot=              6.3831
 Quadrupole moment (field-independent basis, Debye-Ang):
   XX=            -89.7626   YY=            -35.4515   ZZ=            -35.4490
   XY=              0.0003   XZ=             -0.0012   YZ=              0.0000

  Exact polarizability:  78.431  -0.000  41.603  -0.021  -0.000  41.613
 Approx polarizability:  96.895   0.000  49.895  -0.048  -0.000  49.909

 ******    2 imaginary frequencies (negative Signs) ******

                      1                      2                      3
                      A                      A                      A
 Frequencies --    -59.3855               -59.3098                94.3281
 Red. masses --      3.5619                 3.5634                11.9868
 Frc consts  --      0.0074                 0.0074                 0.0628
 IR Inten    --     20.8186                20.8313                20.5174

                      4                      5                      6
                      A                      A                      A
 Frequencies --    371.8229               371.9548               922.3470
 Red. masses --      3.5335                 3.5325                 4.7540
 Frc consts  --      0.2878                 0.2879                 2.3829
 IR Inten    --      1.3616                 1.3562                10.2414

                      7                      8                      9
                      A                      A                      A
 Frequencies --   1020.7272              1020.7379              1362.7385
 Red. masses --      1.5100                 1.5100                 1.2226
 Frc consts  --      0.9269                 0.9270                 1.3377
 IR Inten    --      1.3511                 1.3567                35.7233

                     10                     11                     12
                      A                      A                      A
 Frequencies --   1448.5494              1448.6431              2348.8450
 Red. masses --      1.0401                 1.0401                12.5144
 Frc consts  --      1.2859                 1.2860                40.6788
 IR Inten    --     13.1592                13.1621                46.8386

                     13                     14                     15
                      A                      A                      A
 Frequencies --   3084.3880              3167.0405              3167.3094
 Red. masses --      1.0337                 1.1031                 1.1031
 Frc consts  --      5.7939                 6.5189                 6.5203
 IR Inten    --      1.5019                 0.2019                 0.2183

 - Thermochemistry -
 -------------------
 Temperature   298.150 Kelvin.  Pressure   1.00000 Atm.
 Atom     1 has atomic number  6 and mass  12.00000

 Molecular mass:    75.99540 amu.
 Principal axes and moments of inertia in atomic units:
                           1         2         3
     Eigenvalues --    11.303331658.024891658.02913
           X            1.00000  -0.00029   0.00001
           Y           -0.00001   0.01326   0.99991
           Z            0.00029   0.99991  -0.01326
 This molecule is an asymmetric top.
 Rotational symmetry number  1.
 Rotational temperatures (Kelvin)      7.66269     0.05224     0.05224
 Rotational constants (GHZ):         159.66456     1.08849     1.08849
    2 imaginary frequencies ignored.
 Zero-point vibrational energy     118606.3 (Joules/Mol)
                                   28.34760 (Kcal/Mol)
 Warning -- explicit consideration of   3 degrees of freedom as
           vibrations may cause significant error
 Vibrational temperatures:    135.72   534.97   535.16  1327.05  1468.60
          (Kelvin)           1468.61  1960.68  2084.14  2084.27  3379.46
                             4437.75  4556.66  4557.05

 Zero-point correction=                           0.045175 (Hartree/Particle)
 Thermal correction to Energy=                    0.049567
 Thermal correction to Enthalpy=                  0.050511
 Thermal correction to Gibbs Free Energy=         0.017296
 Sum of electronic and zero-point Energies=           -593.014832
 Sum of electronic and thermal Energies=              -593.010440
 Sum of electronic and thermal Enthalpies=            -593.009496
 Sum of electronic and thermal Free Energies=         -593.042711

                     E (Thermal)             CV                S
                      KCal/Mol        Cal/Mol-Kelvin    Cal/Mol-Kelvin
 Total                   31.104             12.458             69.907
 Electronic               0.000              0.000              0.000
 Translational            0.889              2.981             38.900
 Rotational               0.889              2.981             24.944
 Vibrational             29.326              6.496              6.063
 Vibration     1          0.603              1.953              3.568
 Vibration     2          0.744              1.530              1.072
 Vibration     3          0.744              1.530              1.072

 Normal termination of Gaussian 16 at Sun Oct 13 09:47:12 2024.
