 Gaussian 16, Revision B.01,
 Gaussian 16:  ES64L-G16RevB.01 20-Dec-2017

 ---------------------------------------------------------------------
 #p b3lyp 6-31++g(d,p) scf=verytight NoSymm freq=noraman int=ultrafine
 ---------------------------------------------------------------------

 ------------------------
 RxCoord=-8.18672 DE=0.61
 ------------------------
 Symbolic Z-matrix:
 Charge = -1 Multiplicity = 1

                          Input orientation:
 ---------------------------------------------------------------------
 Center     Atomic      Atomic             Coordinates (Angstroms)
 Number     Number       Type             X           Y           Z
 ---------------------------------------------------------------------
      1          6           0        0.844697    0.000017    0.003237
      2         17           0       -2.506951    0.000006   -0.001298
      3          1           0        0.462880    0.002174   -1.019235
      4          1           0        0.465249    0.884811    0.517467
      5          1           0        0.465229   -0.886925    0.513719
      6          6           0        2.301638    0.000019    0.000824
      7          7           0        3.463877   -0.000050   -0.001099
 ---------------------------------------------------------------------

 SCF Done:  E(RB3LYP) =  -593.060018815     A.U. after   13 cycles

 Alpha  occ. eigenvalues -- -101.25454 -14.23109 -10.12822 -10.10005  -9.16790
 Alpha  occ. eigenvalues --   -6.92572  -6.92572  -6.92563  -0.80079  -0.64686
 Alpha  occ. eigenvalues --   -0.50565  -0.38456  -0.33042  -0.33038  -0.26132
 Alpha  occ. eigenvalues --   -0.21982  -0.21981  -0.05280  -0.05174  -0.05174
 Alpha virt. eigenvalues --    0.09946   0.13400   0.13408   0.14219   0.14529
 Alpha virt. eigenvalues --    0.14531   0.19832   0.20416   0.20421   0.21942
 Alpha virt. eigenvalues --    0.22958   0.22967   0.25084   0.25899   0.25904

 Mulliken charges:
               1
     1  C   -0.056000
     2  Cl  -0.931858
     3  H    0.215998
     4  H    0.215669
     5  H    0.215679
     6  C   -0.083830
     7  N   -0.575658
 Sum of Mulliken charges =  -1.00000

 Dipole moment (field-independent basis, Debye):
    X=              6.3463    Y=              0.0001    Z=              0.0126  Tot=              6.3463
 Quadrupole moment (field-independent basis, Debye-Ang):
   XX=            -89.5789   YY=            -35.4499   ZZ=            -35.4474
   XY=              0.0005   XZ=             -0.0008   YZ=              0.0000

  Exact polarizability:  78.460  -0.001  41.599  -0.021   0.000  41.609
 Approx polarizability:  96.937  -0.002  49.912  -0.048   0.000  49.926

 ******    2 imaginary frequencies (negative Signs) ******

                      1                      2                      3
                      A                      A                      A
 Frequencies --    -59.6523               -59.5000                96.6118
 Red. masses --      3.5644                 3.5663                11.9975
 Frc consts  --      0.0075                 0.0074                 0.0660
 IR Inten    --     20.8405                20.8531                20.5004

                      4                      5                      6
                      A                      A                      A
 Frequencies --    371.8740               372.0254               922.5019
 Red. masses --      3.5303                 3.5292                 4.7569
 Frc consts  --      0.2876                 0.2878                 2.3851
 IR Inten    --      1.3590                 1.3535                10.3224

                      7                      8                      9
                      A                      A                      A
 Frequencies --   1020.5269              1020.5686              1362.2361
 Red. masses --      1.5102                 1.5101                 1.2223
 Frc consts  --      0.9267                 0.9267                 1.3364
 IR Inten    --      1.3568                 1.3622                36.0362

                     10                     11                     12
                      A                      A                      A
 Frequencies --   1448.2841              1448.3803              2348.8539
 Red. masses --      1.0401                 1.0401                12.5137
 Frc consts  --      1.2854                 1.2856                40.6768
 IR Inten    --     13.1271                13.1299                47.1236

                     13                     14                     15
                      A                      A                      A
 Frequencies --   3084.6675              3167.3233              3167.5966
 Red. masses --      1.0337                 1.1031                 1.1031
 Frc consts  --      5.7949                 6.5201                 6.5214
 IR Inten    --      1.5348                 0.2070                 0.2227

 - Thermochemistry -
 -------------------
 Temperature   298.150 Kelvin.  Pressure   1.00000 Atm.
 Atom     1 has atomic number  6 and mass  12.00000

 Molecular mass:    75.99540 amu.
 Principal axes and moments of inertia in atomic units:
                           1         2         3
     Eigenvalues --    11.301701650.382351650.38654
           X            1.00000  -0.00027   0.00001
           Y           -0.00000   0.01408   0.99990
           Z            0.00027   0.99990  -0.01408
 This molecule is an asymmetric top.
 Rotational symmetry number  1.
 Rotational temperatures (Kelvin)      7.66380     0.05248     0.05248
 Rotational constants (GHZ):         159.68762     1.09353     1.09353
    2 imaginary frequencies ignored.
 Zero-point vibrational energy     118618.4 (Joules/Mol)
                                   28.35048 (Kcal/Mol)
 Warning -- explicit consideration of   3 degrees of freedom as
           vibrations may cause significant error
 Vibrational temperatures:    139.00   535.04   535.26  1327.27  1468.31
          (Kelvin)           1468.37  1959.95  2083.76  2083.90  3379.48
                             4438.15  4557.07  4557.46

 Zero-point correction=                           0.045179 (Hartree/Particle)
 Thermal correction to Energy=                    0.049567
 Thermal correction to Enthalpy=                  0.050511
 Thermal correction to Gibbs Free Energy=         0.017323
 Sum of electronic and zero-point Energies=           -593.014839
 Sum of electronic and thermal Energies=              -593.010452
 Sum of electronic and thermal Enthalpies=            -593.009508
 Sum of electronic and thermal Free Energies=         -593.042696

                     E (Thermal)             CV                S
                      KCal/Mol        Cal/Mol-Kelvin    Cal/Mol-Kelvin
 Total                   31.104             12.456             69.850
 Electronic               0.000              0.000              0.000
 Translational            0.889              2.981             38.900
 Rotational               0.889              2.981             24.935
 Vibrational             29.326              6.495              6.016
 Vibration     1          0.603              1.952              3.522
 Vibration     2          0.744              1.530              1.072
 Vibration     3          0.744              1.530              1.071

 Normal termination of Gaussian 16 at Sun Oct 13 09:47:12 2024.
