 Gaussian 16, Revision B.01,
 Gaussian 16:  ES64L-G16RevB.01 20-Dec-2017

 ---------------------------------------------------------------------
 #p b3lyp 6-31++g(d,p) scf=verytight NoSymm freq=noraman int=ultrafine
 ---------------------------------------------------------------------

 ------------------------
 RxCoord=-8.08674 DE=0.67
 ------------------------
 Symbolic Z-matrix:
 Charge = -1 Multiplicity = 1

                          Input orientation:
 ---------------------------------------------------------------------
 Center     Atomic      Atomic             Coordinates (Angstroms)
 Number     Number       Type             X           Y           Z
 ---------------------------------------------------------------------
      1          6           0        0.839160    0.000043    0.003038
      2         17           0       -2.500379    0.000001   -0.001201
      3          1           0        0.457413    0.002209   -1.019434
      4          1           0        0.459531    0.884765    0.517169
      5          1           0        0.459492   -0.886853    0.513392
      6          6           0        2.296014   -0.000013    0.000758
      7          7           0        3.458246   -0.000037   -0.001054
 ---------------------------------------------------------------------

 SCF Done:  E(RB3LYP) =  -593.060027495     A.U. after   13 cycles

 Alpha  occ. eigenvalues -- -101.25458 -14.23077 -10.12789 -10.09958  -9.16795
 Alpha  occ. eigenvalues --   -6.92578  -6.92578  -6.92568  -0.80050  -0.64648
 Alpha  occ. eigenvalues --   -0.50576  -0.38418  -0.33002  -0.32998  -0.26104
 Alpha  occ. eigenvalues --   -0.21950  -0.21949  -0.05287  -0.05184  -0.05184
 Alpha virt. eigenvalues --    0.09964   0.13425   0.13433   0.14230   0.14551
 Alpha virt. eigenvalues --    0.14553   0.19842   0.20433   0.20438   0.21943
 Alpha virt. eigenvalues --    0.22981   0.22989   0.25109   0.25906   0.25911

 Mulliken charges:
               1
     1  C   -0.052212
     2  Cl  -0.931097
     3  H    0.216185
     4  H    0.215899
     5  H    0.215902
     6  C   -0.088656
     7  N   -0.576021
 Sum of Mulliken charges =  -1.00000

 Dipole moment (field-independent basis, Debye):
    X=              6.3095    Y=              0.0001    Z=              0.0118  Tot=              6.3095
 Quadrupole moment (field-independent basis, Debye-Ang):
   XX=            -89.3958   YY=            -35.4481   ZZ=            -35.4458
   XY=              0.0003   XZ=             -0.0005   YZ=              0.0000

  Exact polarizability:  78.489  -0.000  41.595  -0.020  -0.000  41.604
 Approx polarizability:  96.980  -0.001  49.929  -0.045  -0.000  49.942

 ******    2 imaginary frequencies (negative Signs) ******

                      1                      2                      3
                      A                      A                      A
 Frequencies --    -59.9046               -59.6861                98.9262
 Red. masses --      3.5673                 3.5696                12.0088
 Frc consts  --      0.0075                 0.0075                 0.0692
 IR Inten    --     20.8635                20.8761                20.4832

                      4                      5                      6
                      A                      A                      A
 Frequencies --    371.9291               372.1001               922.6621
 Red. masses --      3.5269                 3.5258                 4.7599
 Frc consts  --      0.2875                 0.2876                 2.3875
 IR Inten    --      1.3559                 1.3497                10.4049

                      7                      8                      9
                      A                      A                      A
 Frequencies --   1020.3346              1020.3978              1361.7308
 Red. masses --      1.5103                 1.5101                 1.2220
 Frc consts  --      0.9264                 0.9264                 1.3351
 IR Inten    --      1.3624                 1.3685                36.3565

                     10                     11                     12
                      A                      A                      A
 Frequencies --   1448.0249              1448.1066              2348.8772
 Red. masses --      1.0401                 1.0401                12.5130
 Frc consts  --      1.2849                 1.2851                40.6753
 IR Inten    --     13.0937                13.0983                47.4129

                     13                     14                     15
                      A                      A                      A
 Frequencies --   3084.9546              3167.6543              3167.8462
 Red. masses --      1.0337                 1.1031                 1.1031
 Frc consts  --      5.7960                 6.5214                 6.5224
 IR Inten    --      1.5693                 0.2123                 0.2267

 - Thermochemistry -
 -------------------
 Temperature   298.150 Kelvin.  Pressure   1.00000 Atm.
 Atom     1 has atomic number  6 and mass  12.00000

 Molecular mass:    75.99540 amu.
 Principal axes and moments of inertia in atomic units:
                           1         2         3
     Eigenvalues --    11.300011642.759161642.76317
           X            1.00000  -0.00025   0.00001
           Y           -0.00000   0.01816   0.99984
           Z            0.00025   0.99984  -0.01816
 This molecule is an asymmetric top.
 Rotational symmetry number  1.
 Rotational temperatures (Kelvin)      7.66494     0.05272     0.05272
 Rotational constants (GHZ):         159.71140     1.09860     1.09860
    2 imaginary frequencies ignored.
 Zero-point vibrational energy     118630.9 (Joules/Mol)
                                   28.35348 (Kcal/Mol)
 Warning -- explicit consideration of   3 degrees of freedom as
           vibrations may cause significant error
 Vibrational temperatures:    142.33   535.12   535.37  1327.50  1468.03
          (Kelvin)           1468.12  1959.23  2083.38  2083.50  3379.51
                             4438.56  4557.55  4557.82

 Zero-point correction=                           0.045184 (Hartree/Particle)
 Thermal correction to Energy=                    0.049567
 Thermal correction to Enthalpy=                  0.050511
 Thermal correction to Gibbs Free Energy=         0.017350
 Sum of electronic and zero-point Energies=           -593.014843
 Sum of electronic and thermal Energies=              -593.010460
 Sum of electronic and thermal Enthalpies=            -593.009516
 Sum of electronic and thermal Free Energies=         -593.042678

                     E (Thermal)             CV                S
                      KCal/Mol        Cal/Mol-Kelvin    Cal/Mol-Kelvin
 Total                   31.104             12.455             69.794
 Electronic               0.000              0.000              0.000
 Translational            0.889              2.981             38.900
 Rotational               0.889              2.981             24.926
 Vibrational             29.326              6.493              5.969
 Vibration     1          0.604              1.950              3.475
 Vibration     2          0.744              1.530              1.072
 Vibration     3          0.744              1.529              1.071

 Normal termination of Gaussian 16 at Sun Oct 13 09:47:14 2024.
