 Gaussian 16, Revision B.01,
 Gaussian 16:  ES64L-G16RevB.01 20-Dec-2017

 ---------------------------------------------------------------------
 #p b3lyp 6-31++g(d,p) scf=verytight NoSymm freq=noraman int=ultrafine
 ---------------------------------------------------------------------

 ------------------------
 RxCoord=-7.98676 DE=0.72
 ------------------------
 Symbolic Z-matrix:
 Charge = -1 Multiplicity = 1

                          Input orientation:
 ---------------------------------------------------------------------
 Center     Atomic      Atomic             Coordinates (Angstroms)
 Number     Number       Type             X           Y           Z
 ---------------------------------------------------------------------
      1          6           0        0.833628    0.000039    0.002839
      2         17           0       -2.493806   -0.000002   -0.001107
      3          1           0        0.451907    0.002223   -1.019600
      4          1           0        0.453801    0.884697    0.516884
      5          1           0        0.453768   -0.886797    0.513084
      6          6           0        2.290389    0.000019    0.000725
      7          7           0        3.452616   -0.000053   -0.001035
 ---------------------------------------------------------------------

 SCF Done:  E(RB3LYP) =  -593.060032778     A.U. after   13 cycles

 Alpha  occ. eigenvalues -- -101.25462 -14.23045 -10.12756 -10.09911  -9.16801
 Alpha  occ. eigenvalues --   -6.92583  -6.92583  -6.92573  -0.80020  -0.64610
 Alpha  occ. eigenvalues --   -0.50587  -0.38379  -0.32962  -0.32958  -0.26076
 Alpha  occ. eigenvalues --   -0.21918  -0.21917  -0.05294  -0.05194  -0.05194
 Alpha virt. eigenvalues --    0.09982   0.13450   0.13457   0.14241   0.14574
 Alpha virt. eigenvalues --    0.14576   0.19852   0.20450   0.20454   0.21943
 Alpha virt. eigenvalues --    0.23004   0.23012   0.25134   0.25913   0.25918

 Mulliken charges:
               1
     1  C   -0.048444
     2  Cl  -0.930331
     3  H    0.216379
     4  H    0.216114
     5  H    0.216125
     6  C   -0.093452
     7  N   -0.576391
 Sum of Mulliken charges =  -1.00000

 Dipole moment (field-independent basis, Debye):
    X=              6.2726    Y=              0.0002    Z=              0.0110  Tot=              6.2727
 Quadrupole moment (field-independent basis, Debye-Ang):
   XX=            -89.2134   YY=            -35.4464   ZZ=            -35.4441
   XY=              0.0004   XZ=              0.0000   YZ=              0.0000

  Exact polarizability:  78.520  -0.001  41.591  -0.019   0.000  41.599
 Approx polarizability:  97.026  -0.002  49.945  -0.044   0.000  49.957

 ******    2 imaginary frequencies (negative Signs) ******

                      1                      2                      3
                      A                      A                      A
 Frequencies --    -60.1077               -59.8826               101.2671
 Red. masses --      3.5705                 3.5726                12.0205
 Frc consts  --      0.0076                 0.0075                 0.0726
 IR Inten    --     20.8876                20.8992                20.4662

                      4                      5                      6
                      A                      A                      A
 Frequencies --    372.0217               372.1754               922.8380
 Red. masses --      3.5235                 3.5224                 4.7629
 Frc consts  --      0.2873                 0.2875                 2.3899
 IR Inten    --      1.3518                 1.3462                10.4889

                      7                      8                      9
                      A                      A                      A
 Frequencies --   1020.1522              1020.2087              1361.2234
 Red. masses --      1.5103                 1.5102                 1.2217
 Frc consts  --      0.9261                 0.9261                 1.3337
 IR Inten    --      1.3692                 1.3749                36.6887

                     10                     11                     12
                      A                      A                      A
 Frequencies --   1447.7535              1447.8363              2348.8877
 Red. masses --      1.0401                 1.0401                12.5122
 Frc consts  --      1.2845                 1.2846                40.6733
 IR Inten    --     13.0606                13.0664                47.7093

                     13                     14                     15
                      A                      A                      A
 Frequencies --   3085.2507              3167.9156              3168.1692
 Red. masses --      1.0337                 1.1031                 1.1031
 Frc consts  --      5.7971                 6.5225                 6.5237
 IR Inten    --      1.6060                 0.2172                 0.2313

 - Thermochemistry -
 -------------------
 Temperature   298.150 Kelvin.  Pressure   1.00000 Atm.
 Atom     1 has atomic number  6 and mass  12.00000

 Molecular mass:    75.99540 amu.
 Principal axes and moments of inertia in atomic units:
                           1         2         3
     Eigenvalues --    11.298181635.155681635.15943
           X            1.00000  -0.00022   0.00001
           Y           -0.00000   0.01958   0.99981
           Z            0.00022   0.99981  -0.01958
 This molecule is an asymmetric top.
 Rotational symmetry number  1.
 Rotational temperatures (Kelvin)      7.66618     0.05297     0.05297
 Rotational constants (GHZ):         159.73732     1.10371     1.10371
    2 imaginary frequencies ignored.
 Zero-point vibrational energy     118643.8 (Joules/Mol)
                                   28.35656 (Kcal/Mol)
 Warning -- explicit consideration of   3 degrees of freedom as
           vibrations may cause significant error
 Vibrational temperatures:    145.70   535.26   535.48  1327.76  1467.77
          (Kelvin)           1467.85  1958.50  2082.99  2083.11  3379.53
                             4438.99  4557.92  4558.29

 Zero-point correction=                           0.045189 (Hartree/Particle)
 Thermal correction to Energy=                    0.049568
 Thermal correction to Enthalpy=                  0.050512
 Thermal correction to Gibbs Free Energy=         0.017377
 Sum of electronic and zero-point Energies=           -593.014844
 Sum of electronic and thermal Energies=              -593.010465
 Sum of electronic and thermal Enthalpies=            -593.009521
 Sum of electronic and thermal Free Energies=         -593.042656

                     E (Thermal)             CV                S
                      KCal/Mol        Cal/Mol-Kelvin    Cal/Mol-Kelvin
 Total                   31.104             12.453             69.739
 Electronic               0.000              0.000              0.000
 Translational            0.889              2.981             38.900
 Rotational               0.889              2.981             24.916
 Vibrational             29.327              6.492              5.923
 Vibration     1          0.604              1.948              3.430
 Vibration     2          0.744              1.530              1.071
 Vibration     3          0.744              1.529              1.071

 Normal termination of Gaussian 16 at Sun Oct 13 09:47:22 2024.
