 Gaussian 16, Revision B.01,
 Gaussian 16:  ES64L-G16RevB.01 20-Dec-2017

 ---------------------------------------------------------------------
 #p b3lyp 6-31++g(d,p) scf=verytight NoSymm freq=noraman int=ultrafine
 ---------------------------------------------------------------------

 ------------------------
 RxCoord=-7.88677 DE=0.77
 ------------------------
 Symbolic Z-matrix:
 Charge = -1 Multiplicity = 1

                          Input orientation:
 ---------------------------------------------------------------------
 Center     Atomic      Atomic             Coordinates (Angstroms)
 Number     Number       Type             X           Y           Z
 ---------------------------------------------------------------------
      1          6           0        0.828096    0.000060    0.002666
      2         17           0       -2.487234   -0.000007   -0.001013
      3          1           0        0.446337    0.002249   -1.019718
      4          1           0        0.448080    0.884646    0.516623
      5          1           0        0.448038   -0.886723    0.512806
      6          6           0        2.284766    0.000000    0.000642
      7          7           0        3.446987   -0.000046   -0.001004
 ---------------------------------------------------------------------

 SCF Done:  E(RB3LYP) =  -593.060034591     A.U. after   13 cycles

 Alpha  occ. eigenvalues -- -101.25467 -14.23013 -10.12723 -10.09863  -9.16806
 Alpha  occ. eigenvalues --   -6.92589  -6.92589  -6.92578  -0.79990  -0.64571
 Alpha  occ. eigenvalues --   -0.50598  -0.38342  -0.32921  -0.32917  -0.26048
 Alpha  occ. eigenvalues --   -0.21886  -0.21885  -0.05301  -0.05204  -0.05204
 Alpha virt. eigenvalues --    0.10000   0.13474   0.13481   0.14252   0.14598
 Alpha virt. eigenvalues --    0.14600   0.19862   0.20466   0.20471   0.21943
 Alpha virt. eigenvalues --    0.23027   0.23034   0.25158   0.25920   0.25924

 Mulliken charges:
               1
     1  C   -0.044707
     2  Cl  -0.929558
     3  H    0.216570
     4  H    0.216332
     5  H    0.216337
     6  C   -0.098206
     7  N   -0.576769
 Sum of Mulliken charges =  -1.00000

 Dipole moment (field-independent basis, Debye):
    X=              6.2358    Y=              0.0002    Z=              0.0103  Tot=              6.2358
 Quadrupole moment (field-independent basis, Debye-Ang):
   XX=            -89.0317   YY=            -35.4446   ZZ=            -35.4425
   XY=              0.0004   XZ=              0.0005   YZ=              0.0000

  Exact polarizability:  78.551  -0.001  41.586  -0.018  -0.000  41.593
 Approx polarizability:  97.072  -0.001  49.961  -0.041  -0.000  49.972

 ******    2 imaginary frequencies (negative Signs) ******

                      1                      2                      3
                      A                      A                      A
 Frequencies --    -60.2802               -60.0726               103.6321
 Red. masses --      3.5741                 3.5759                12.0327
 Frc consts  --      0.0077                 0.0076                 0.0761
 IR Inten    --     20.9127                20.9233                20.4496

                      4                      5                      6
                      A                      A                      A
 Frequencies --    372.1296               372.2559               923.0110
 Red. masses --      3.5199                 3.5187                 4.7661
 Frc consts  --      0.2872                 0.2873                 2.3924
 IR Inten    --      1.3469                 1.3419                10.5747

                      7                      8                      9
                      A                      A                      A
 Frequencies --   1019.9725              1020.0084              1360.7118
 Red. masses --      1.5103                 1.5103                 1.2214
 Frc consts  --      0.9258                 0.9258                 1.3324
 IR Inten    --      1.3763                 1.3820                37.0326

                     10                     11                     12
                      A                      A                      A
 Frequencies --   1447.4833              1447.5586              2348.9034
 Red. masses --      1.0401                 1.0401                12.5115
 Frc consts  --      1.2840                 1.2841                40.6714
 IR Inten    --     13.0269                13.0350                48.0100

                     13                     14                     15
                      A                      A                      A
 Frequencies --   3085.5475              3168.1779              3168.4763
 Red. masses --      1.0337                 1.1031                 1.1031
 Frc consts  --      5.7983                 6.5235                 6.5250
 IR Inten    --      1.6449                 0.2223                 0.2355

 - Thermochemistry -
 -------------------
 Temperature   298.150 Kelvin.  Pressure   1.00000 Atm.
 Atom     1 has atomic number  6 and mass  12.00000

 Molecular mass:    75.99540 amu.
 Principal axes and moments of inertia in atomic units:
                           1         2         3
     Eigenvalues --    11.296201627.573331627.57670
           X            1.00000  -0.00020   0.00001
           Y           -0.00000   0.02270   0.99974
           Z            0.00020   0.99974  -0.02270
 This molecule is an asymmetric top.
 Rotational symmetry number  1.
 Rotational temperatures (Kelvin)      7.66753     0.05322     0.05322
 Rotational constants (GHZ):         159.76538     1.10885     1.10885
    2 imaginary frequencies ignored.
 Zero-point vibrational energy     118656.8 (Joules/Mol)
                                   28.35966 (Kcal/Mol)
 Warning -- explicit consideration of   3 degrees of freedom as
           vibrations may cause significant error
 Vibrational temperatures:    149.10   535.41   535.59  1328.01  1467.51
          (Kelvin)           1467.56  1957.76  2082.61  2082.71  3379.55
                             4439.41  4558.30  4558.73

 Zero-point correction=                           0.045194 (Hartree/Particle)
 Thermal correction to Energy=                    0.049568
 Thermal correction to Enthalpy=                  0.050512
 Thermal correction to Gibbs Free Energy=         0.017403
 Sum of electronic and zero-point Energies=           -593.014841
 Sum of electronic and thermal Energies=              -593.010467
 Sum of electronic and thermal Enthalpies=            -593.009523
 Sum of electronic and thermal Free Energies=         -593.042632

                     E (Thermal)             CV                S
                      KCal/Mol        Cal/Mol-Kelvin    Cal/Mol-Kelvin
 Total                   31.104             12.452             69.684
 Electronic               0.000              0.000              0.000
 Translational            0.889              2.981             38.900
 Rotational               0.889              2.981             24.907
 Vibrational             29.327              6.490              5.877
 Vibration     1          0.605              1.946              3.385
 Vibration     2          0.744              1.529              1.071
 Vibration     3          0.744              1.529              1.070

 Normal termination of Gaussian 16 at Sun Oct 13 09:47:24 2024.
