 Gaussian 16, Revision B.01,
 Gaussian 16:  ES64L-G16RevB.01 20-Dec-2017

 ---------------------------------------------------------------------
 #p b3lyp 6-31++g(d,p) scf=verytight NoSymm freq=noraman int=ultrafine
 ---------------------------------------------------------------------

 ------------------------
 RxCoord=-7.78679 DE=0.83
 ------------------------
 Symbolic Z-matrix:
 Charge = -1 Multiplicity = 1

                          Input orientation:
 ---------------------------------------------------------------------
 Center     Atomic      Atomic             Coordinates (Angstroms)
 Number     Number       Type             X           Y           Z
 ---------------------------------------------------------------------
      1          6           0        0.822567    0.000059    0.002479
      2         17           0       -2.480661   -0.000010   -0.000915
      3          1           0        0.440733    0.002263   -1.019833
      4          1           0        0.442357    0.884575    0.516366
      5          1           0        0.442322   -0.886651    0.512539
      6          6           0        2.279142    0.000023    0.000577
      7          7           0        3.441357   -0.000059   -0.000986
 ---------------------------------------------------------------------

 SCF Done:  E(RB3LYP) =  -593.060032500     A.U. after   13 cycles

 Alpha  occ. eigenvalues -- -101.25471 -14.22981 -10.12689 -10.09816  -9.16811
 Alpha  occ. eigenvalues --   -6.92594  -6.92594  -6.92582  -0.79960  -0.64532
 Alpha  occ. eigenvalues --   -0.50610  -0.38304  -0.32881  -0.32876  -0.26019
 Alpha  occ. eigenvalues --   -0.21854  -0.21853  -0.05307  -0.05214  -0.05214
 Alpha virt. eigenvalues --    0.10018   0.13499   0.13505   0.14263   0.14621
 Alpha virt. eigenvalues --    0.14623   0.19873   0.20483   0.20487   0.21943
 Alpha virt. eigenvalues --    0.23050   0.23057   0.25183   0.25927   0.25931

 Mulliken charges:
               1
     1  C   -0.040994
     2  Cl  -0.928779
     3  H    0.216763
     4  H    0.216538
     5  H    0.216548
     6  C   -0.102919
     7  N   -0.577157
 Sum of Mulliken charges =  -1.00000

 Dipole moment (field-independent basis, Debye):
    X=              6.1989    Y=              0.0002    Z=              0.0095  Tot=              6.1989
 Quadrupole moment (field-independent basis, Debye-Ang):
   XX=            -88.8506   YY=            -35.4428   ZZ=            -35.4408
   XY=              0.0004   XZ=              0.0011   YZ=              0.0000

  Exact polarizability:  78.584  -0.001  41.580  -0.018  -0.000  41.587
 Approx polarizability:  97.121  -0.002  49.976  -0.040  -0.000  49.986

 ******    2 imaginary frequencies (negative Signs) ******

                      1                      2                      3
                      A                      A                      A
 Frequencies --    -60.4369               -60.2687               106.0193
 Red. masses --      3.5780                 3.5794                12.0453
 Frc consts  --      0.0077                 0.0077                 0.0798
 IR Inten    --     20.9386                20.9482                20.4331

                      4                      5                      6
                      A                      A                      A
 Frequencies --    372.2530               372.3422               923.1953
 Red. masses --      3.5162                 3.5150                 4.7693
 Frc consts  --      0.2871                 0.2871                 2.3949
 IR Inten    --      1.3414                 1.3373                10.6626

                      7                      8                      9
                      A                      A                      A
 Frequencies --   1019.7937              1019.8058              1360.1941
 Red. masses --      1.5104                 1.5103                 1.2210
 Frc consts  --      0.9255                 0.9255                 1.3310
 IR Inten    --      1.3856                 1.3879                37.3866

                     10                     11                     12
                      A                      A                      A
 Frequencies --   1447.2043              1447.2824              2348.9196
 Red. masses --      1.0401                 1.0401                12.5107
 Frc consts  --      1.2835                 1.2836                40.6695
 IR Inten    --     12.9939                13.0025                48.3165

                     13                     14                     15
                      A                      A                      A
 Frequencies --   3085.8432              3168.4176              3168.7957
 Red. masses --      1.0337                 1.1031                 1.1031
 Frc consts  --      5.7994                 6.5245                 6.5262
 IR Inten    --      1.6856                 0.2271                 0.2400

 - Thermochemistry -
 -------------------
 Temperature   298.150 Kelvin.  Pressure   1.00000 Atm.
 Atom     1 has atomic number  6 and mass  12.00000

 Molecular mass:    75.99540 amu.
 Principal axes and moments of inertia in atomic units:
                           1         2         3
     Eigenvalues --    11.294131620.009851620.01297
           X            1.00000  -0.00017   0.00000
           Y           -0.00000   0.01900   0.99982
           Z            0.00017   0.99982  -0.01900
 This molecule is an asymmetric top.
 Rotational symmetry number  1.
 Rotational temperatures (Kelvin)      7.66893     0.05347     0.05346
 Rotational constants (GHZ):         159.79455     1.11403     1.11403
    2 imaginary frequencies ignored.
 Zero-point vibrational energy     118669.9 (Joules/Mol)
                                   28.36280 (Kcal/Mol)
 Warning -- explicit consideration of   3 degrees of freedom as
           vibrations may cause significant error
 Vibrational temperatures:    152.54   535.59   535.72  1328.27  1467.26
          (Kelvin)           1467.27  1957.02  2082.20  2082.32  3379.57
                             4439.84  4558.65  4559.19

 Zero-point correction=                           0.045199 (Hartree/Particle)
 Thermal correction to Energy=                    0.049568
 Thermal correction to Enthalpy=                  0.050512
 Thermal correction to Gibbs Free Energy=         0.017429
 Sum of electronic and zero-point Energies=           -593.014834
 Sum of electronic and thermal Energies=              -593.010464
 Sum of electronic and thermal Enthalpies=            -593.009520
 Sum of electronic and thermal Free Energies=         -593.042603

                     E (Thermal)             CV                S
                      KCal/Mol        Cal/Mol-Kelvin    Cal/Mol-Kelvin
 Total                   31.104             12.450             69.629
 Electronic               0.000              0.000              0.000
 Translational            0.889              2.981             38.900
 Rotational               0.889              2.981             24.897
 Vibrational             29.327              6.488              5.832
 Vibration     1          0.605              1.944              3.341
 Vibration     2          0.744              1.529              1.070
 Vibration     3          0.744              1.529              1.070

 Normal termination of Gaussian 16 at Sun Oct 13 09:47:25 2024.
