 Gaussian 16, Revision B.01,
 Gaussian 16:  ES64L-G16RevB.01 20-Dec-2017

 ---------------------------------------------------------------------
 #p b3lyp 6-31++g(d,p) scf=verytight NoSymm freq=noraman int=ultrafine
 ---------------------------------------------------------------------

 ------------------------
 RxCoord=-7.68681 DE=0.89
 ------------------------
 Symbolic Z-matrix:
 Charge = -1 Multiplicity = 1

                          Input orientation:
 ---------------------------------------------------------------------
 Center     Atomic      Atomic             Coordinates (Angstroms)
 Number     Number       Type             X           Y           Z
 ---------------------------------------------------------------------
      1          6           0        0.817043    0.000075    0.002292
      2         17           0       -2.474089   -0.000013   -0.000811
      3          1           0        0.435120    0.002287   -1.019954
      4          1           0        0.436653    0.884504    0.516124
      5          1           0        0.436609   -0.886562    0.512281
      6          6           0        2.273516    0.000006    0.000476
      7          7           0        3.435725   -0.000054   -0.000955
 ---------------------------------------------------------------------

 SCF Done:  E(RB3LYP) =  -593.060026078     A.U. after   13 cycles

 Alpha  occ. eigenvalues -- -101.25475 -14.22949 -10.12656 -10.09768  -9.16816
 Alpha  occ. eigenvalues --   -6.92599  -6.92599  -6.92586  -0.79929  -0.64493
 Alpha  occ. eigenvalues --   -0.50621  -0.38266  -0.32840  -0.32835  -0.25991
 Alpha  occ. eigenvalues --   -0.21821  -0.21821  -0.05313  -0.05225  -0.05224
 Alpha virt. eigenvalues --    0.10035   0.13524   0.13530   0.14273   0.14644
 Alpha virt. eigenvalues --    0.14646   0.19883   0.20500   0.20504   0.21943
 Alpha virt. eigenvalues --    0.23073   0.23080   0.25207   0.25933   0.25937

 Mulliken charges:
               1
     1  C   -0.037308
     2  Cl  -0.927995
     3  H    0.216945
     4  H    0.216745
     5  H    0.216751
     6  C   -0.107581
     7  N   -0.577557
 Sum of Mulliken charges =  -1.00000

 Dipole moment (field-independent basis, Debye):
    X=              6.1620    Y=              0.0002    Z=              0.0087  Tot=              6.1621
 Quadrupole moment (field-independent basis, Debye-Ang):
   XX=            -88.6703   YY=            -35.4409   ZZ=            -35.4390
   XY=              0.0004   XZ=              0.0018   YZ=              0.0000

  Exact polarizability:  78.617  -0.001  41.574  -0.017  -0.000  41.581
 Approx polarizability:  97.170  -0.001  49.991  -0.037  -0.000  50.001

 ******    2 imaginary frequencies (negative Signs) ******

                      1                      2                      3
                      A                      A                      A
 Frequencies --    -60.6073               -60.4594               108.4274
 Red. masses --      3.5820                 3.5831                12.0584
 Frc consts  --      0.0078                 0.0077                 0.0835
 IR Inten    --     20.9652                20.9742                20.4167

                      4                      5                      6
                      A                      A                      A
 Frequencies --    372.3766               372.4490               923.3978
 Red. masses --      3.5125                 3.5113                 4.7725
 Frc consts  --      0.2870                 0.2870                 2.3976
 IR Inten    --      1.3358                 1.3320                10.7525

                      7                      8                      9
                      A                      A                      A
 Frequencies --   1019.6120              1019.6197              1359.6718
 Red. masses --      1.5104                 1.5103                 1.2207
 Frc consts  --      0.9251                 0.9251                 1.3296
 IR Inten    --      1.3962                 1.3928                37.7480

                     10                     11                     12
                      A                      A                      A
 Frequencies --   1446.9230              1447.0040              2348.9389
 Red. masses --      1.0401                 1.0401                12.5099
 Frc consts  --      1.2830                 1.2832                40.6676
 IR Inten    --     12.9605                12.9693                48.6295

                     13                     14                     15
                      A                      A                      A
 Frequencies --   3086.1256              3168.6820              3169.0618
 Red. masses --      1.0337                 1.1031                 1.1031
 Frc consts  --      5.8005                 6.5255                 6.5273
 IR Inten    --      1.7276                 0.2321                 0.2444

 - Thermochemistry -
 -------------------
 Temperature   298.150 Kelvin.  Pressure   1.00000 Atm.
 Atom     1 has atomic number  6 and mass  12.00000

 Molecular mass:    75.99540 amu.
 Principal axes and moments of inertia in atomic units:
                           1         2         3
     Eigenvalues --    11.292101612.466171612.46930
           X            1.00000  -0.00014   0.00000
           Y           -0.00000   0.01780   0.99984
           Z            0.00014   0.99984  -0.01780
 This molecule is an asymmetric top.
 Rotational symmetry number  1.
 Rotational temperatures (Kelvin)      7.67031     0.05372     0.05372
 Rotational constants (GHZ):         159.82336     1.11924     1.11924
    2 imaginary frequencies ignored.
 Zero-point vibrational energy     118683.2 (Joules/Mol)
                                   28.36598 (Kcal/Mol)
 Warning -- explicit consideration of   3 degrees of freedom as
           vibrations may cause significant error
 Vibrational temperatures:    156.00   535.77   535.87  1328.56  1466.99
          (Kelvin)           1467.01  1956.26  2081.80  2081.92  3379.60
                             4440.25  4559.03  4559.57

 Zero-point correction=                           0.045204 (Hartree/Particle)
 Thermal correction to Energy=                    0.049568
 Thermal correction to Enthalpy=                  0.050513
 Thermal correction to Gibbs Free Energy=         0.017455
 Sum of electronic and zero-point Energies=           -593.014822
 Sum of electronic and thermal Energies=              -593.010458
 Sum of electronic and thermal Enthalpies=            -593.009513
 Sum of electronic and thermal Free Energies=         -593.042571

                     E (Thermal)             CV                S
                      KCal/Mol        Cal/Mol-Kelvin    Cal/Mol-Kelvin
 Total                   31.105             12.448             69.575
 Electronic               0.000              0.000              0.000
 Translational            0.889              2.981             38.900
 Rotational               0.889              2.981             24.888
 Vibrational             29.327              6.486              5.788
 Vibration     1          0.606              1.942              3.297
 Vibration     2          0.744              1.529              1.070
 Vibration     3          0.744              1.529              1.070

 Normal termination of Gaussian 16 at Sun Oct 13 09:47:27 2024.
