 Gaussian 16, Revision B.01,
 Gaussian 16:  ES64L-G16RevB.01 20-Dec-2017

 ---------------------------------------------------------------------
 #p b3lyp 6-31++g(d,p) scf=verytight NoSymm freq=noraman int=ultrafine
 ---------------------------------------------------------------------

 ------------------------
 RxCoord=-7.58683 DE=0.95
 ------------------------
 Symbolic Z-matrix:
 Charge = -1 Multiplicity = 1

                          Input orientation:
 ---------------------------------------------------------------------
 Center     Atomic      Atomic             Coordinates (Angstroms)
 Number     Number       Type             X           Y           Z
 ---------------------------------------------------------------------
      1          6           0        0.811523    0.000074    0.002073
      2         17           0       -2.467517   -0.000014   -0.000697
      3          1           0        0.429552    0.002307   -1.020116
      4          1           0        0.430960    0.884420    0.515861
      5          1           0        0.430915   -0.886487    0.511993
      6          6           0        2.267888    0.000023    0.000395
      7          7           0        3.430087   -0.000064   -0.000930
 ---------------------------------------------------------------------

 SCF Done:  E(RB3LYP) =  -593.060014718     A.U. after   13 cycles

 Alpha  occ. eigenvalues -- -101.25478 -14.22916 -10.12622 -10.09720  -9.16821
 Alpha  occ. eigenvalues --   -6.92604  -6.92604  -6.92591  -0.79899  -0.64454
 Alpha  occ. eigenvalues --   -0.50633  -0.38227  -0.32800  -0.32794  -0.25962
 Alpha  occ. eigenvalues --   -0.21789  -0.21788  -0.05319  -0.05235  -0.05235
 Alpha virt. eigenvalues --    0.10053   0.13548   0.13554   0.14284   0.14668
 Alpha virt. eigenvalues --    0.14670   0.19893   0.20516   0.20520   0.21943
 Alpha virt. eigenvalues --    0.23096   0.23102   0.25231   0.25940   0.25944

 Mulliken charges:
               1
     1  C   -0.033649
     2  Cl  -0.927209
     3  H    0.217120
     4  H    0.216941
     5  H    0.216951
     6  C   -0.112177
     7  N   -0.577976
 Sum of Mulliken charges =  -1.00000

 Dipole moment (field-independent basis, Debye):
    X=              6.1252    Y=              0.0003    Z=              0.0079  Tot=              6.1252
 Quadrupole moment (field-independent basis, Debye-Ang):
   XX=            -88.4909   YY=            -35.4390   ZZ=            -35.4371
   XY=              0.0004   XZ=              0.0025   YZ=              0.0000

  Exact polarizability:  78.651  -0.001  41.567  -0.016  -0.000  41.574
 Approx polarizability:  97.220  -0.002  50.006  -0.035  -0.000  50.015

 ******    2 imaginary frequencies (negative Signs) ******

                      1                      2                      3
                      A                      A                      A
 Frequencies --    -60.8159               -60.6908               110.8558
 Red. masses --      3.5862                 3.5870                12.0720
 Frc consts  --      0.0078                 0.0078                 0.0874
 IR Inten    --     20.9929                21.0013                20.3998

                      4                      5                      6
                      A                      A                      A
 Frequencies --    372.4854               372.5412               923.6184
 Red. masses --      3.5086                 3.5075                 4.7757
 Frc consts  --      0.2868                 0.2868                 2.4003
 IR Inten    --      1.3296                 1.3263                10.8450

                      7                      8                      9
                      A                      A                      A
 Frequencies --   1019.4332              1019.4475              1359.1337
 Red. masses --      1.5104                 1.5103                 1.2203
 Frc consts  --      0.9248                 0.9248                 1.3282
 IR Inten    --      1.4036                 1.4010                38.1101

                     10                     11                     12
                      A                      A                      A
 Frequencies --   1446.6297              1446.7280              2348.9888
 Red. masses --      1.0401                 1.0401                12.5091
 Frc consts  --      1.2825                 1.2827                40.6668
 IR Inten    --     12.9267                12.9347                48.9468

                     13                     14                     15
                      A                      A                      A
 Frequencies --   3086.4199              3168.9478              3169.3704
 Red. masses --      1.0337                 1.1031                 1.1031
 Frc consts  --      5.8016                 6.5266                 6.5286
 IR Inten    --      1.7697                 0.2371                 0.2490

 - Thermochemistry -
 -------------------
 Temperature   298.150 Kelvin.  Pressure   1.00000 Atm.
 Atom     1 has atomic number  6 and mass  12.00000

 Molecular mass:    75.99540 amu.
 Principal axes and moments of inertia in atomic units:
                           1         2         3
     Eigenvalues --    11.290181604.940551604.94379
           X            1.00000  -0.00011   0.00000
           Y           -0.00000   0.01377   0.99991
           Z            0.00011   0.99991  -0.01377
 This molecule is an asymmetric top.
 Rotational symmetry number  1.
 Rotational temperatures (Kelvin)      7.67161     0.05397     0.05397
 Rotational constants (GHZ):         159.85050     1.12449     1.12449
    2 imaginary frequencies ignored.
 Zero-point vibrational energy     118697.1 (Joules/Mol)
                                   28.36928 (Kcal/Mol)
 Warning -- explicit consideration of   3 degrees of freedom as
           vibrations may cause significant error
 Vibrational temperatures:    159.50   535.92   536.00  1328.88  1466.74
          (Kelvin)           1466.76  1955.49  2081.38  2081.52  3379.67
                             4440.67  4559.41  4560.02

 Zero-point correction=                           0.045209 (Hartree/Particle)
 Thermal correction to Energy=                    0.049569
 Thermal correction to Enthalpy=                  0.050513
 Thermal correction to Gibbs Free Energy=         0.017481
 Sum of electronic and zero-point Energies=           -593.014805
 Sum of electronic and thermal Energies=              -593.010446
 Sum of electronic and thermal Enthalpies=            -593.009502
 Sum of electronic and thermal Free Energies=         -593.042534

                     E (Thermal)             CV                S
                      KCal/Mol        Cal/Mol-Kelvin    Cal/Mol-Kelvin
 Total                   31.105             12.446             69.522
 Electronic               0.000              0.000              0.000
 Translational            0.889              2.981             38.900
 Rotational               0.889              2.981             24.879
 Vibrational             29.328              6.484              5.744
 Vibration     1          0.607              1.940              3.254
 Vibration     2          0.744              1.529              1.070
 Vibration     3          0.744              1.529              1.069

 Normal termination of Gaussian 16 at Sun Oct 13 09:47:35 2024.
