 Gaussian 16, Revision B.01,
 Gaussian 16:  ES64L-G16RevB.01 20-Dec-2017

 ---------------------------------------------------------------------
 #p b3lyp 6-31++g(d,p) scf=verytight NoSymm freq=noraman int=ultrafine
 ---------------------------------------------------------------------

 ------------------------
 RxCoord=-7.48685 DE=1.02
 ------------------------
 Symbolic Z-matrix:
 Charge = -1 Multiplicity = 1

                          Input orientation:
 ---------------------------------------------------------------------
 Center     Atomic      Atomic             Coordinates (Angstroms)
 Number     Number       Type             X           Y           Z
 ---------------------------------------------------------------------
      1          6           0        0.806017    0.000087    0.001846
      2         17           0       -2.460945   -0.000016   -0.000577
      3          1           0        0.424035    0.002344   -1.020306
      4          1           0        0.425310    0.884348    0.515592
      5          1           0        0.425250   -0.886414    0.511685
      6          6           0        2.262250    0.000005    0.000291
      7          7           0        3.424437   -0.000059   -0.000892
 ---------------------------------------------------------------------

 SCF Done:  E(RB3LYP) =  -593.059997908     A.U. after   13 cycles

 Alpha  occ. eigenvalues -- -101.25482 -14.22883 -10.12587 -10.09671  -9.16826
 Alpha  occ. eigenvalues --   -6.92609  -6.92609  -6.92595  -0.79869  -0.64416
 Alpha  occ. eigenvalues --   -0.50645  -0.38189  -0.32760  -0.32754  -0.25933
 Alpha  occ. eigenvalues --   -0.21756  -0.21755  -0.05325  -0.05245  -0.05245
 Alpha virt. eigenvalues --    0.10071   0.13573   0.13578   0.14295   0.14693
 Alpha virt. eigenvalues --    0.14694   0.19903   0.20533   0.20537   0.21943
 Alpha virt. eigenvalues --    0.23119   0.23124   0.25256   0.25947   0.25950

 Mulliken charges:
               1
     1  C   -0.030015
     2  Cl  -0.926422
     3  H    0.217281
     4  H    0.217134
     5  H    0.217141
     6  C   -0.116702
     7  N   -0.578418
 Sum of Mulliken charges =  -1.00000

 Dipole moment (field-independent basis, Debye):
    X=              6.0885    Y=              0.0003    Z=              0.0070  Tot=              6.0885
 Quadrupole moment (field-independent basis, Debye-Ang):
   XX=            -88.3124   YY=            -35.4370   ZZ=            -35.4350
   XY=              0.0004   XZ=              0.0032   YZ=              0.0000

  Exact polarizability:  78.685  -0.001  41.560  -0.015  -0.000  41.567
 Approx polarizability:  97.270  -0.002  50.020  -0.032  -0.000  50.029

 ******    2 imaginary frequencies (negative Signs) ******

                      1                      2                      3
                      A                      A                      A
 Frequencies --    -61.0980               -60.9747               113.3037
 Red. masses --      3.5903                 3.5912                12.0861
 Frc consts  --      0.0079                 0.0079                 0.0914
 IR Inten    --     21.0214                21.0294                20.3823

                      4                      5                      6
                      A                      A                      A
 Frequencies --    372.5750               372.6325               923.8991
 Red. masses --      3.5049                 3.5038                 4.7785
 Frc consts  --      0.2866                 0.2866                 2.4032
 IR Inten    --      1.3237                 1.3204                10.9394

                      7                      8                      9
                      A                      A                      A
 Frequencies --   1019.2772              1019.2830              1358.5884
 Red. masses --      1.5103                 1.5103                 1.2200
 Frc consts  --      0.9245                 0.9245                 1.3267
 IR Inten    --      1.4100                 1.4100                38.4731

                     10                     11                     12
                      A                      A                      A
 Frequencies --   1446.3337              1446.4460              2349.0658
 Red. masses --      1.0401                 1.0402                12.5084
 Frc consts  --      1.2820                 1.2822                40.6669
 IR Inten    --     12.8916                12.8992                49.2751

                     13                     14                     15
                      A                      A                      A
 Frequencies --   3086.7127              3169.2547              3169.6559
 Red. masses --      1.0337                 1.1031                 1.1031
 Frc consts  --      5.8027                 6.5279                 6.5297
 IR Inten    --      1.8117                 0.2425                 0.2535

 - Thermochemistry -
 -------------------
 Temperature   298.150 Kelvin.  Pressure   1.00000 Atm.
 Atom     1 has atomic number  6 and mass  12.00000

 Molecular mass:    75.99540 amu.
 Principal axes and moments of inertia in atomic units:
                           1         2         3
     Eigenvalues --    11.288471597.430301597.43367
           X            1.00000  -0.00008   0.00000
           Y           -0.00000   0.01006   0.99995
           Z            0.00008   0.99995  -0.01006
 This molecule is an asymmetric top.
 Rotational symmetry number  1.
 Rotational temperatures (Kelvin)      7.67278     0.05422     0.05422
 Rotational constants (GHZ):         159.87479     1.12978     1.12978
    2 imaginary frequencies ignored.
 Zero-point vibrational energy     118711.6 (Joules/Mol)
                                   28.37275 (Kcal/Mol)
 Warning -- explicit consideration of   3 degrees of freedom as
           vibrations may cause significant error
 Vibrational temperatures:    163.02   536.05   536.14  1329.28  1466.51
          (Kelvin)           1466.52  1954.71  2080.95  2081.11  3379.78
                             4441.09  4559.85  4560.43

 Zero-point correction=                           0.045215 (Hartree/Particle)
 Thermal correction to Energy=                    0.049570
 Thermal correction to Enthalpy=                  0.050514
 Thermal correction to Gibbs Free Energy=         0.017507
 Sum of electronic and zero-point Energies=           -593.014783
 Sum of electronic and thermal Energies=              -593.010428
 Sum of electronic and thermal Enthalpies=            -593.009484
 Sum of electronic and thermal Free Energies=         -593.042491

                     E (Thermal)             CV                S
                      KCal/Mol        Cal/Mol-Kelvin    Cal/Mol-Kelvin
 Total                   31.106             12.444             69.470
 Electronic               0.000              0.000              0.000
 Translational            0.889              2.981             38.900
 Rotational               0.889              2.981             24.869
 Vibrational             29.328              6.482              5.701
 Vibration     1          0.607              1.938              3.212
 Vibration     2          0.744              1.528              1.069
 Vibration     3          0.744              1.528              1.069

 Normal termination of Gaussian 16 at Sun Oct 13 09:47:36 2024.
