 Gaussian 16, Revision B.01,
 Gaussian 16:  ES64L-G16RevB.01 20-Dec-2017

 ---------------------------------------------------------------------
 #p b3lyp 6-31++g(d,p) scf=verytight NoSymm freq=noraman int=ultrafine
 ---------------------------------------------------------------------

 ------------------------
 RxCoord=-7.38687 DE=1.09
 ------------------------
 Symbolic Z-matrix:
 Charge = -1 Multiplicity = 1

                          Input orientation:
 ---------------------------------------------------------------------
 Center     Atomic      Atomic             Coordinates (Angstroms)
 Number     Number       Type             X           Y           Z
 ---------------------------------------------------------------------
      1          6           0        0.800516    0.000084    0.001601
      2         17           0       -2.454373   -0.000017   -0.000454
      3          1           0        0.418565    0.002376   -1.020526
      4          1           0        0.419668    0.884264    0.515308
      5          1           0        0.419603   -0.886353    0.511355
      6          6           0        2.256609    0.000019    0.000217
      7          7           0        3.418780   -0.000067   -0.000864
 ---------------------------------------------------------------------

 SCF Done:  E(RB3LYP) =  -593.059975770     A.U. after   13 cycles

 Alpha  occ. eigenvalues -- -101.25485 -14.22850 -10.12552 -10.09622  -9.16830
 Alpha  occ. eigenvalues --   -6.92614  -6.92614  -6.92598  -0.79838  -0.64378
 Alpha  occ. eigenvalues --   -0.50656  -0.38149  -0.32720  -0.32714  -0.25904
 Alpha  occ. eigenvalues --   -0.21723  -0.21722  -0.05331  -0.05255  -0.05255
 Alpha virt. eigenvalues --    0.10088   0.13597   0.13602   0.14306   0.14717
 Alpha virt. eigenvalues --    0.14718   0.19913   0.20550   0.20553   0.21943
 Alpha virt. eigenvalues --    0.23142   0.23147   0.25280   0.25954   0.25957

 Mulliken charges:
               1
     1  C   -0.026412
     2  Cl  -0.925632
     3  H    0.217435
     4  H    0.217316
     5  H    0.217327
     6  C   -0.121155
     7  N   -0.578878
 Sum of Mulliken charges =  -1.00000

 Dipole moment (field-independent basis, Debye):
    X=              6.0518    Y=              0.0003    Z=              0.0060  Tot=              6.0518
 Quadrupole moment (field-independent basis, Debye-Ang):
   XX=            -88.1348   YY=            -35.4348   ZZ=            -35.4328
   XY=              0.0004   XZ=              0.0039   YZ=             -0.0000

  Exact polarizability:  78.720  -0.001  41.553  -0.014  -0.000  41.559
 Approx polarizability:  97.320  -0.002  50.034  -0.030  -0.000  50.043

 ******    2 imaginary frequencies (negative Signs) ******

                      1                      2                      3
                      A                      A                      A
 Frequencies --    -61.4294               -61.2972               115.7740
 Red. masses --      3.5946                 3.5955                12.1008
 Frc consts  --      0.0080                 0.0080                 0.0956
 IR Inten    --     21.0510                21.0588                20.3641

                      4                      5                      6
                      A                      A                      A
 Frequencies --    372.6450               372.7123               924.2030
 Red. masses --      3.5010                 3.5000                 4.7814
 Frc consts  --      0.2864                 0.2865                 2.4063
 IR Inten    --      1.3173                 1.3140                11.0360

                      7                      8                      9
                      A                      A                      A
 Frequencies --   1019.1143              1019.1402              1358.0286
 Red. masses --      1.5102                 1.5102                 1.2197
 Frc consts  --      0.9242                 0.9242                 1.3253
 IR Inten    --      1.4170                 1.4185                38.8361

                     10                     11                     12
                      A                      A                      A
 Frequencies --   1446.0270              1446.1631              2349.1745
 Red. masses --      1.0402                 1.0402                12.5076
 Frc consts  --      1.2814                 1.2817                40.6680
 IR Inten    --     12.8562                12.8623                49.6088

                     13                     14                     15
                      A                      A                      A
 Frequencies --   3087.0257              3169.5889              3169.9738
 Red. masses --      1.0337                 1.1031                 1.1031
 Frc consts  --      5.8039                 6.5292                 6.5311
 IR Inten    --      1.8536                 0.2479                 0.2583

 - Thermochemistry -
 -------------------
 Temperature   298.150 Kelvin.  Pressure   1.00000 Atm.
 Atom     1 has atomic number  6 and mass  12.00000

 Molecular mass:    75.99540 amu.
 Principal axes and moments of inertia in atomic units:
                           1         2         3
     Eigenvalues --    11.286841589.937631589.94121
           X            1.00000  -0.00005   0.00000
           Y           -0.00000   0.00526   0.99999
           Z            0.00005   0.99999  -0.00526
 This molecule is an asymmetric top.
 Rotational symmetry number  1.
 Rotational temperatures (Kelvin)      7.67389     0.05448     0.05448
 Rotational constants (GHZ):         159.89781     1.13510     1.13510
    2 imaginary frequencies ignored.
 Zero-point vibrational energy     118726.8 (Joules/Mol)
                                   28.37639 (Kcal/Mol)
 Warning -- explicit consideration of   3 degrees of freedom as
           vibrations may cause significant error
 Vibrational temperatures:    166.57   536.15   536.25  1329.72  1466.28
          (Kelvin)           1466.32  1953.90  2080.51  2080.71  3379.94
                             4441.54  4560.33  4560.89

 Zero-point correction=                           0.045221 (Hartree/Particle)
 Thermal correction to Energy=                    0.049571
 Thermal correction to Enthalpy=                  0.050515
 Thermal correction to Gibbs Free Energy=         0.017532
 Sum of electronic and zero-point Energies=           -593.014755
 Sum of electronic and thermal Energies=              -593.010405
 Sum of electronic and thermal Enthalpies=            -593.009461
 Sum of electronic and thermal Free Energies=         -593.042443

                     E (Thermal)             CV                S
                      KCal/Mol        Cal/Mol-Kelvin    Cal/Mol-Kelvin
 Total                   31.106             12.442             69.418
 Electronic               0.000              0.000              0.000
 Translational            0.889              2.981             38.900
 Rotational               0.889              2.981             24.860
 Vibrational             29.329              6.480              5.659
 Vibration     1          0.608              1.936              3.170
 Vibration     2          0.744              1.528              1.069
 Vibration     3          0.744              1.528              1.069

 Normal termination of Gaussian 16 at Sun Oct 13 09:47:37 2024.
