 Gaussian 16, Revision B.01,
 Gaussian 16:  ES64L-G16RevB.01 20-Dec-2017

 ---------------------------------------------------------------------
 #p b3lyp 6-31++g(d,p) scf=verytight NoSymm freq=noraman int=ultrafine
 ---------------------------------------------------------------------

 ------------------------
 RxCoord=-7.28689 DE=1.15
 ------------------------
 Symbolic Z-matrix:
 Charge = -1 Multiplicity = 1

                          Input orientation:
 ---------------------------------------------------------------------
 Center     Atomic      Atomic             Coordinates (Angstroms)
 Number     Number       Type             X           Y           Z
 ---------------------------------------------------------------------
      1          6           0        0.795029    0.000098    0.001371
      2         17           0       -2.447801   -0.000018   -0.000335
      3          1           0        0.413122    0.002420   -1.020735
      4          1           0        0.414050    0.884184    0.515030
      5          1           0        0.413961   -0.886276    0.511025
      6          6           0        2.250960   -0.000005    0.000122
      7          7           0        3.413115   -0.000059   -0.000825
 ---------------------------------------------------------------------

 SCF Done:  E(RB3LYP) =  -593.059948276     A.U. after   13 cycles

 Alpha  occ. eigenvalues -- -101.25488 -14.22816 -10.12516 -10.09573  -9.16834
 Alpha  occ. eigenvalues --   -6.92618  -6.92618  -6.92602  -0.79807  -0.64340
 Alpha  occ. eigenvalues --   -0.50668  -0.38110  -0.32681  -0.32674  -0.25875
 Alpha  occ. eigenvalues --   -0.21690  -0.21689  -0.05336  -0.05265  -0.05265
 Alpha virt. eigenvalues --    0.10106   0.13622   0.13626   0.14316   0.14742
 Alpha virt. eigenvalues --    0.14743   0.19924   0.20566   0.20569   0.21943
 Alpha virt. eigenvalues --    0.23165   0.23169   0.25303   0.25961   0.25963

 Mulliken charges:
               1
     1  C   -0.022844
     2  Cl  -0.924840
     3  H    0.217578
     4  H    0.217498
     5  H    0.217506
     6  C   -0.125543
     7  N   -0.579356
 Sum of Mulliken charges =  -1.00000

 Dipole moment (field-independent basis, Debye):
    X=              6.0152    Y=              0.0003    Z=              0.0051  Tot=              6.0152
 Quadrupole moment (field-independent basis, Debye-Ang):
   XX=            -87.9579   YY=            -35.4326   ZZ=            -35.4305
   XY=              0.0004   XZ=              0.0045   YZ=             -0.0000

  Exact polarizability:  78.755  -0.001  41.545  -0.013  -0.000  41.551
 Approx polarizability:  97.371  -0.001  50.048  -0.026  -0.000  50.056

 ******    2 imaginary frequencies (negative Signs) ******

                      1                      2                      3
                      A                      A                      A
 Frequencies --    -61.8277               -61.6623               118.2680
 Red. masses --      3.5986                 3.5999                12.1161
 Frc consts  --      0.0081                 0.0081                 0.0999
 IR Inten    --     21.0809                21.0888                20.3452

                      4                      5                      6
                      A                      A                      A
 Frequencies --    372.6950               372.7927               924.5626
 Red. masses --      3.4972                 3.4963                 4.7841
 Frc consts  --      0.2862                 0.2863                 2.4095
 IR Inten    --      1.3115                 1.3075                11.1339

                      7                      8                      9
                      A                      A                      A
 Frequencies --   1018.9329              1018.9989              1357.4560
 Red. masses --      1.5102                 1.5101                 1.2194
 Frc consts  --      0.9238                 0.9239                 1.3238
 IR Inten    --      1.4253                 1.4268                39.2052

                     10                     11                     12
                      A                      A                      A
 Frequencies --   1445.7096              1445.8660              2349.2950
 Red. masses --      1.0402                 1.0402                12.5067
 Frc consts  --      1.2809                 1.2812                40.6695
 IR Inten    --     12.8202                12.8255                49.9544

                     13                     14                     15
                      A                      A                      A
 Frequencies --   3087.3986              3170.0173              3170.3264
 Red. masses --      1.0337                 1.1031                 1.1031
 Frc consts  --      5.8053                 6.5310                 6.5325
 IR Inten    --      1.8966                 0.2538                 0.2630

 - Thermochemistry -
 -------------------
 Temperature   298.150 Kelvin.  Pressure   1.00000 Atm.
 Atom     1 has atomic number  6 and mass  12.00000

 Molecular mass:    75.99540 amu.
 Principal axes and moments of inertia in atomic units:
                           1         2         3
     Eigenvalues --    11.285091582.461711582.46554
           X            1.00000  -0.00002   0.00000
           Y           -0.00000   0.00413   0.99999
           Z            0.00002   0.99999  -0.00413
 This molecule is an asymmetric top.
 Rotational symmetry number  1.
 Rotational temperatures (Kelvin)      7.67508     0.05473     0.05473
 Rotational constants (GHZ):         159.92263     1.14046     1.14046
    2 imaginary frequencies ignored.
 Zero-point vibrational energy     118743.2 (Joules/Mol)
                                   28.38031 (Kcal/Mol)
 Warning -- explicit consideration of   3 degrees of freedom as
           vibrations may cause significant error
 Vibrational temperatures:    170.16   536.22   536.37  1330.24  1466.02
          (Kelvin)           1466.11  1953.08  2080.05  2080.28  3380.11
                             4442.08  4560.95  4561.39

 Zero-point correction=                           0.045227 (Hartree/Particle)
 Thermal correction to Energy=                    0.049572
 Thermal correction to Enthalpy=                  0.050517
 Thermal correction to Gibbs Free Energy=         0.017558
 Sum of electronic and zero-point Energies=           -593.014721
 Sum of electronic and thermal Energies=              -593.010376
 Sum of electronic and thermal Enthalpies=            -593.009432
 Sum of electronic and thermal Free Energies=         -593.042390

                     E (Thermal)             CV                S
                      KCal/Mol        Cal/Mol-Kelvin    Cal/Mol-Kelvin
 Total                   31.107             12.440             69.367
 Electronic               0.000              0.000              0.000
 Translational            0.889              2.981             38.900
 Rotational               0.889              2.981             24.850
 Vibrational             29.330              6.478              5.617
 Vibration     1          0.608              1.934              3.128
 Vibration     2          0.744              1.528              1.069
 Vibration     3          0.744              1.528              1.068

 Normal termination of Gaussian 16 at Sun Oct 13 09:47:39 2024.
