 Gaussian 16, Revision B.01,
 Gaussian 16:  ES64L-G16RevB.01 20-Dec-2017

 ---------------------------------------------------------------------
 #p b3lyp 6-31++g(d,p) scf=verytight NoSymm freq=noraman int=ultrafine
 ---------------------------------------------------------------------

 ------------------------
 RxCoord=-7.18691 DE=1.22
 ------------------------
 Symbolic Z-matrix:
 Charge = -1 Multiplicity = 1

                          Input orientation:
 ---------------------------------------------------------------------
 Center     Atomic      Atomic             Coordinates (Angstroms)
 Number     Number       Type             X           Y           Z
 ---------------------------------------------------------------------
      1          6           0        0.789550    0.000091    0.001140
      2         17           0       -2.441230   -0.000018   -0.000222
      3          1           0        0.407678    0.002454   -1.020917
      4          1           0        0.408416    0.884080    0.514746
      5          1           0        0.408311   -0.886191    0.510692
      6          6           0        2.245310    0.000008    0.000060
      7          7           0        3.407444   -0.000066   -0.000800
 ---------------------------------------------------------------------

 SCF Done:  E(RB3LYP) =  -593.059915760     A.U. after   13 cycles

 Alpha  occ. eigenvalues -- -101.25491 -14.22782 -10.12481 -10.09523  -9.16839
 Alpha  occ. eigenvalues --   -6.92623  -6.92623  -6.92605  -0.79777  -0.64303
 Alpha  occ. eigenvalues --   -0.50680  -0.38072  -0.32642  -0.32634  -0.25845
 Alpha  occ. eigenvalues --   -0.21657  -0.21656  -0.05341  -0.05275  -0.05275
 Alpha virt. eigenvalues --    0.10124   0.13646   0.13650   0.14327   0.14767
 Alpha virt. eigenvalues --    0.14768   0.19934   0.20583   0.20585   0.21943
 Alpha virt. eigenvalues --    0.23188   0.23191   0.25327   0.25968   0.25970

 Mulliken charges:
               1
     1  C   -0.019324
     2  Cl  -0.924041
     3  H    0.217722
     4  H    0.217670
     5  H    0.217685
     6  C   -0.129861
     7  N   -0.579850
 Sum of Mulliken charges =  -1.00000

 Dipole moment (field-independent basis, Debye):
    X=              5.9785    Y=              0.0003    Z=              0.0043  Tot=              5.9785
 Quadrupole moment (field-independent basis, Debye-Ang):
   XX=            -87.7816   YY=            -35.4303   ZZ=            -35.4281
   XY=              0.0005   XZ=              0.0052   YZ=             -0.0000

  Exact polarizability:  78.790  -0.001  41.536  -0.012  -0.000  41.542
 Approx polarizability:  97.423  -0.002  50.060  -0.025  -0.000  50.068

 ******    2 imaginary frequencies (negative Signs) ******

                      1                      2                      3
                      A                      A                      A
 Frequencies --    -62.2796               -62.0928               120.7902
 Red. masses --      3.6027                 3.6043                12.1320
 Frc consts  --      0.0082                 0.0082                 0.1043
 IR Inten    --     21.1119                21.1197                20.3257

                      4                      5                      6
                      A                      A                      A
 Frequencies --    372.7184               372.8359               924.9495
 Red. masses --      3.4931                 3.4924                 4.7867
 Frc consts  --      0.2859                 0.2860                 2.4128
 IR Inten    --      1.3050                 1.3010                11.2328

                      7                      8                      9
                      A                      A                      A
 Frequencies --   1018.7200              1018.8286              1356.8617
 Red. masses --      1.5103                 1.5101                 1.2190
 Frc consts  --      0.9235                 0.9235                 1.3223
 IR Inten    --      1.4349                 1.4357                39.5843

                     10                     11                     12
                      A                      A                      A
 Frequencies --   1445.3657              1445.5592              2349.4549
 Red. masses --      1.0402                 1.0402                12.5059
 Frc consts  --      1.2803                 1.2806                40.6723
 IR Inten    --     12.7846                12.7890                50.3080

                     13                     14                     15
                      A                      A                      A
 Frequencies --   3087.8842              3170.5106              3170.8380
 Red. masses --      1.0337                 1.1031                 1.1031
 Frc consts  --      5.8071                 6.5330                 6.5346
 IR Inten    --      1.9414                 0.2594                 0.2681

 - Thermochemistry -
 -------------------
 Temperature   298.150 Kelvin.  Pressure   1.00000 Atm.
 Atom     1 has atomic number  6 and mass  12.00000

 Molecular mass:    75.99540 amu.
 Principal axes and moments of inertia in atomic units:
                           1         2         3
     Eigenvalues --    11.282911575.004411575.00847
           X            1.00000   0.00001   0.00000
           Y           -0.00000   0.00245   1.00000
           Z           -0.00001   1.00000  -0.00245
 This molecule is an asymmetric top.
 Rotational symmetry number  1.
 Rotational temperatures (Kelvin)      7.67656     0.05499     0.05499
 Rotational constants (GHZ):         159.95350     1.14586     1.14586
    2 imaginary frequencies ignored.
 Zero-point vibrational energy     118761.2 (Joules/Mol)
                                   28.38460 (Kcal/Mol)
 Warning -- explicit consideration of   3 degrees of freedom as
           vibrations may cause significant error
 Vibrational temperatures:    173.79   536.26   536.43  1330.80  1465.71
          (Kelvin)           1465.87  1952.22  2079.56  2079.84  3380.34
                             4442.78  4561.66  4562.13

 Zero-point correction=                           0.045234 (Hartree/Particle)
 Thermal correction to Energy=                    0.049574
 Thermal correction to Enthalpy=                  0.050519
 Thermal correction to Gibbs Free Energy=         0.017584
 Sum of electronic and zero-point Energies=           -593.014682
 Sum of electronic and thermal Energies=              -593.010341
 Sum of electronic and thermal Enthalpies=            -593.009397
 Sum of electronic and thermal Free Energies=         -593.042331

                     E (Thermal)             CV                S
                      KCal/Mol        Cal/Mol-Kelvin    Cal/Mol-Kelvin
 Total                   31.108             12.438             69.316
 Electronic               0.000              0.000              0.000
 Translational            0.889              2.981             38.900
 Rotational               0.889              2.981             24.841
 Vibrational             29.331              6.476              5.576
 Vibration     1          0.609              1.932              3.088
 Vibration     2          0.744              1.528              1.069
 Vibration     3          0.744              1.528              1.068

 Normal termination of Gaussian 16 at Sun Oct 13 09:47:58 2024.
