 Gaussian 16, Revision B.01,
 Gaussian 16:  ES64L-G16RevB.01 20-Dec-2017

 ---------------------------------------------------------------------
 #p b3lyp 6-31++g(d,p) scf=verytight NoSymm freq=noraman int=ultrafine
 ---------------------------------------------------------------------

 ------------------------
 RxCoord=-7.08693 DE=1.31
 ------------------------
 Symbolic Z-matrix:
 Charge = -1 Multiplicity = 1

                          Input orientation:
 ---------------------------------------------------------------------
 Center     Atomic      Atomic             Coordinates (Angstroms)
 Number     Number       Type             X           Y           Z
 ---------------------------------------------------------------------
      1          6           0        0.784086    0.000107    0.000948
      2         17           0       -2.434658   -0.000018   -0.000119
      3          1           0        0.402199    0.002498   -1.021042
      4          1           0        0.402813    0.883983    0.514486
      5          1           0        0.402658   -0.886080    0.510390
      6          6           0        2.239653   -0.000029   -0.000037
      7          7           0        3.401767   -0.000049   -0.000760
 ---------------------------------------------------------------------

 SCF Done:  E(RB3LYP) =  -593.059877874     A.U. after   13 cycles

 Alpha  occ. eigenvalues -- -101.25493 -14.22748 -10.12445 -10.09472  -9.16843
 Alpha  occ. eigenvalues --   -6.92627  -6.92627  -6.92609  -0.79746  -0.64266
 Alpha  occ. eigenvalues --   -0.50692  -0.38034  -0.32602  -0.32594  -0.25816
 Alpha  occ. eigenvalues --   -0.21624  -0.21623  -0.05346  -0.05286  -0.05285
 Alpha virt. eigenvalues --    0.10141   0.13671   0.13674   0.14338   0.14792
 Alpha virt. eigenvalues --    0.14793   0.19944   0.20600   0.20602   0.21942
 Alpha virt. eigenvalues --    0.23211   0.23214   0.25351   0.25974   0.25976

 Mulliken charges:
               1
     1  C   -0.015845
     2  Cl  -0.923238
     3  H    0.217861
     4  H    0.217844
     5  H    0.217855
     6  C   -0.134120
     7  N   -0.580357
 Sum of Mulliken charges =  -1.00000

 Dipole moment (field-independent basis, Debye):
    X=              5.9418    Y=              0.0003    Z=              0.0035  Tot=              5.9418
 Quadrupole moment (field-independent basis, Debye-Ang):
   XX=            -87.6059   YY=            -35.4279   ZZ=            -35.4257
   XY=              0.0004   XZ=              0.0057   YZ=             -0.0000

  Exact polarizability:  78.827  -0.001  41.527  -0.011  -0.000  41.532
 Approx polarizability:  97.476  -0.000  50.072  -0.021  -0.000  50.080

 ******    2 imaginary frequencies (negative Signs) ******

                      1                      2                      3
                      A                      A                      A
 Frequencies --    -62.7841               -62.5557               123.3435
 Red. masses --      3.6065                 3.6086                12.1486
 Frc consts  --      0.0084                 0.0083                 0.1089
 IR Inten    --     21.1430                21.1511                20.3054

                      4                      5                      6
                      A                      A                      A
 Frequencies --    372.7301               372.8864               925.3928
 Red. masses --      3.4891                 3.4886                 4.7889
 Frc consts  --      0.2856                 0.2858                 2.4163
 IR Inten    --      1.2992                 1.2942                11.3323

                      7                      8                      9
                      A                      A                      A
 Frequencies --   1018.4834              1018.6457              1356.2604
 Red. masses --      1.5104                 1.5101                 1.2187
 Frc consts  --      0.9231                 0.9232                 1.3208
 IR Inten    --      1.4451                 1.4460                39.9762

                     10                     11                     12
                      A                      A                      A
 Frequencies --   1445.0150              1445.2302              2349.6194
 Red. masses --      1.0402                 1.0402                12.5050
 Frc consts  --      1.2797                 1.2800                40.6751
 IR Inten    --     12.7490                12.7532                50.6758

                     13                     14                     15
                      A                      A                      A
 Frequencies --   3088.4427              3171.1152              3171.3755
 Red. masses --      1.0337                 1.1031                 1.1031
 Frc consts  --      5.8092                 6.5355                 6.5368
 IR Inten    --      1.9884                 0.2653                 0.2730

 - Thermochemistry -
 -------------------
 Temperature   298.150 Kelvin.  Pressure   1.00000 Atm.
 Atom     1 has atomic number  6 and mass  12.00000

 Molecular mass:    75.99540 amu.
 Principal axes and moments of inertia in atomic units:
                           1         2         3
     Eigenvalues --    11.280411567.563971567.56817
           X            1.00000   0.00004   0.00000
           Y           -0.00000   0.00149   1.00000
           Z           -0.00004   1.00000  -0.00149
 This molecule is an asymmetric top.
 Rotational symmetry number  1.
 Rotational temperatures (Kelvin)      7.67826     0.05525     0.05525
 Rotational constants (GHZ):         159.98903     1.15130     1.15130
    2 imaginary frequencies ignored.
 Zero-point vibrational energy     118780.4 (Joules/Mol)
                                   28.38921 (Kcal/Mol)
 Warning -- explicit consideration of   3 degrees of freedom as
           vibrations may cause significant error
 Vibrational temperatures:    177.46   536.28   536.50  1331.43  1465.37
          (Kelvin)           1465.60  1951.36  2079.05  2079.36  3380.58
                             4443.58  4562.53  4562.90

 Zero-point correction=                           0.045241 (Hartree/Particle)
 Thermal correction to Energy=                    0.049577
 Thermal correction to Enthalpy=                  0.050521
 Thermal correction to Gibbs Free Energy=         0.017611
 Sum of electronic and zero-point Energies=           -593.014637
 Sum of electronic and thermal Energies=              -593.010301
 Sum of electronic and thermal Enthalpies=            -593.009357
 Sum of electronic and thermal Free Energies=         -593.042267

                     E (Thermal)             CV                S
                      KCal/Mol        Cal/Mol-Kelvin    Cal/Mol-Kelvin
 Total                   31.110             12.435             69.266
 Electronic               0.000              0.000              0.000
 Translational            0.889              2.981             38.900
 Rotational               0.889              2.981             24.831
 Vibrational             29.333              6.474              5.535
 Vibration     1          0.610              1.930              3.047
 Vibration     2          0.744              1.528              1.069
 Vibration     3          0.744              1.528              1.068

 Normal termination of Gaussian 16 at Sun Oct 13 09:47:50 2024.
