 Gaussian 16, Revision B.01,
 Gaussian 16:  ES64L-G16RevB.01 20-Dec-2017

 ---------------------------------------------------------------------
 #p b3lyp 6-31++g(d,p) scf=verytight NoSymm freq=noraman int=ultrafine
 ---------------------------------------------------------------------

 ------------------------
 RxCoord=-6.98695 DE=1.39
 ------------------------
 Symbolic Z-matrix:
 Charge = -1 Multiplicity = 1

                          Input orientation:
 ---------------------------------------------------------------------
 Center     Atomic      Atomic             Coordinates (Angstroms)
 Number     Number       Type             X           Y           Z
 ---------------------------------------------------------------------
      1          6           0        0.778612    0.000091    0.000761
      2         17           0       -2.428085   -0.000017   -0.000027
      3          1           0        0.396705    0.002520   -1.021159
      4          1           0        0.397223    0.883896    0.514249
      5          1           0        0.397037   -0.886002    0.510120
      6          6           0        2.233999   -0.000011   -0.000094
      7          7           0        3.396094   -0.000055   -0.000735
 ---------------------------------------------------------------------

 SCF Done:  E(RB3LYP) =  -593.059833929     A.U. after   13 cycles

 Alpha  occ. eigenvalues -- -101.25496 -14.22713 -10.12408 -10.09422  -9.16847
 Alpha  occ. eigenvalues --   -6.92631  -6.92631  -6.92612  -0.79715  -0.64229
 Alpha  occ. eigenvalues --   -0.50704  -0.37995  -0.32562  -0.32554  -0.25786
 Alpha  occ. eigenvalues --   -0.21590  -0.21589  -0.05351  -0.05296  -0.05296
 Alpha virt. eigenvalues --    0.10159   0.13695   0.13698   0.14349   0.14818
 Alpha virt. eigenvalues --    0.14819   0.19954   0.20616   0.20618   0.21942
 Alpha virt. eigenvalues --    0.23234   0.23237   0.25375   0.25981   0.25982

 Mulliken charges:
               1
     1  C   -0.012398
     2  Cl  -0.922430
     3  H    0.218002
     4  H    0.217995
     5  H    0.218019
     6  C   -0.138314
     7  N   -0.580875
 Sum of Mulliken charges =  -1.00000

 Dipole moment (field-independent basis, Debye):
    X=              5.9052    Y=              0.0003    Z=              0.0027  Tot=              5.9052
 Quadrupole moment (field-independent basis, Debye-Ang):
   XX=            -87.4313   YY=            -35.4254   ZZ=            -35.4232
   XY=              0.0004   XZ=              0.0063   YZ=             -0.0000

  Exact polarizability:  78.866  -0.001  41.517  -0.011  -0.000  41.522
 Approx polarizability:  97.531  -0.001  50.084  -0.020  -0.000  50.091

 ******    2 imaginary frequencies (negative Signs) ******

                      1                      2                      3
                      A                      A                      A
 Frequencies --    -63.2239               -62.9775               125.9334
 Red. masses --      3.6111                 3.6134                12.1659
 Frc consts  --      0.0085                 0.0084                 0.1137
 IR Inten    --     21.1759                21.1840                20.2840

                      4                      5                      6
                      A                      A                      A
 Frequencies --    372.7943               372.9699               925.8077
 Red. masses --      3.4851                 3.4847                 4.7918
 Frc consts  --      0.2854                 0.2856                 2.4199
 IR Inten    --      1.2918                 1.2866                11.4353

                      7                      8                      9
                      A                      A                      A
 Frequencies --   1018.2999              1018.5037              1355.6671
 Red. masses --      1.5104                 1.5100                 1.2184
 Frc consts  --      0.9227                 0.9229                 1.3193
 IR Inten    --      1.4552                 1.4557                40.3648

                     10                     11                     12
                      A                      A                      A
 Frequencies --   1444.6713              1444.9181              2349.7674
 Red. masses --      1.0402                 1.0402                12.5041
 Frc consts  --      1.2791                 1.2795                40.6774
 IR Inten    --     12.7123                12.7152                51.0422

                     13                     14                     15
                      A                      A                      A
 Frequencies --   3088.8991              3171.5641              3171.8754
 Red. masses --      1.0337                 1.1031                 1.1031
 Frc consts  --      5.8109                 6.5373                 6.5388
 IR Inten    --      2.0350                 0.2709                 0.2782

 - Thermochemistry -
 -------------------
 Temperature   298.150 Kelvin.  Pressure   1.00000 Atm.
 Atom     1 has atomic number  6 and mass  12.00000

 Molecular mass:    75.99540 amu.
 Principal axes and moments of inertia in atomic units:
                           1         2         3
     Eigenvalues --    11.278331560.144531560.14876
           X            1.00000   0.00006   0.00000
           Y           -0.00000   0.00287   1.00000
           Z           -0.00006   1.00000  -0.00287
 This molecule is an asymmetric top.
 Rotational symmetry number  1.
 Rotational temperatures (Kelvin)      7.67968     0.05552     0.05552
 Rotational constants (GHZ):         160.01854     1.15678     1.15678
    2 imaginary frequencies ignored.
 Zero-point vibrational energy     118799.2 (Joules/Mol)
                                   28.39369 (Kcal/Mol)
 Warning -- explicit consideration of   3 degrees of freedom as
           vibrations may cause significant error
 Vibrational temperatures:    181.19   536.37   536.62  1332.03  1465.11
          (Kelvin)           1465.40  1950.50  2078.56  2078.91  3380.79
                             4444.24  4563.17  4563.62

 Zero-point correction=                           0.045248 (Hartree/Particle)
 Thermal correction to Energy=                    0.049579
 Thermal correction to Enthalpy=                  0.050524
 Thermal correction to Gibbs Free Energy=         0.017637
 Sum of electronic and zero-point Energies=           -593.014586
 Sum of electronic and thermal Energies=              -593.010255
 Sum of electronic and thermal Enthalpies=            -593.009310
 Sum of electronic and thermal Free Energies=         -593.042197

                     E (Thermal)             CV                S
                      KCal/Mol        Cal/Mol-Kelvin    Cal/Mol-Kelvin
 Total                   31.111             12.433             69.215
 Electronic               0.000              0.000              0.000
 Translational            0.889              2.981             38.900
 Rotational               0.889              2.981             24.821
 Vibrational             29.334              6.471              5.494
 Vibration     1          0.611              1.927              3.007
 Vibration     2          0.744              1.528              1.068
 Vibration     3          0.744              1.528              1.068

 Normal termination of Gaussian 16 at Sun Oct 13 09:47:49 2024.
