 Gaussian 16, Revision B.01,
 Gaussian 16:  ES64L-G16RevB.01 20-Dec-2017

 ---------------------------------------------------------------------
 #p b3lyp 6-31++g(d,p) scf=verytight NoSymm freq=noraman int=ultrafine
 ---------------------------------------------------------------------

 ------------------------
 RxCoord=-6.88697 DE=1.47
 ------------------------
 Symbolic Z-matrix:
 Charge = -1 Multiplicity = 1

                          Input orientation:
 ---------------------------------------------------------------------
 Center     Atomic      Atomic             Coordinates (Angstroms)
 Number     Number       Type             X           Y           Z
 ---------------------------------------------------------------------
      1          6           0        0.773134    0.000113    0.000631
      2         17           0       -2.421513   -0.000018    0.000050
      3          1           0        0.391241    0.002550   -1.021292
      4          1           0        0.391808    0.883898    0.514095
      5          1           0        0.391517   -0.885974    0.509946
      6          6           0        2.228336   -0.000070   -0.000211
      7          7           0        3.390408   -0.000026   -0.000683
 ---------------------------------------------------------------------

 SCF Done:  E(RB3LYP) =  -593.059781615     A.U. after   13 cycles

 Alpha  occ. eigenvalues -- -101.25498 -14.22678 -10.12371 -10.09373  -9.16850
 Alpha  occ. eigenvalues --   -6.92635  -6.92635  -6.92615  -0.79684  -0.64191
 Alpha  occ. eigenvalues --   -0.50716  -0.37953  -0.32523  -0.32516  -0.25755
 Alpha  occ. eigenvalues --   -0.21557  -0.21555  -0.05355  -0.05306  -0.05306
 Alpha virt. eigenvalues --    0.10176   0.13719   0.13722   0.14359   0.14844
 Alpha virt. eigenvalues --    0.14845   0.19964   0.20633   0.20634   0.21941
 Alpha virt. eigenvalues --    0.23257   0.23259   0.25398   0.25988   0.25989

 Mulliken charges:
               1
     1  C   -0.008968
     2  Cl  -0.921625
     3  H    0.218121
     4  H    0.218136
     5  H    0.218156
     6  C   -0.142398
     7  N   -0.581423
 Sum of Mulliken charges =  -1.00000

 Dipole moment (field-independent basis, Debye):
    X=              5.8687    Y=              0.0003    Z=              0.0021  Tot=              5.8687
 Quadrupole moment (field-independent basis, Debye-Ang):
   XX=            -87.2582   YY=            -35.4227   ZZ=            -35.4206
   XY=              0.0003   XZ=              0.0065   YZ=              0.0000

  Exact polarizability:  78.904   0.000  41.508  -0.009  -0.000  41.513
 Approx polarizability:  97.586   0.001  50.097  -0.015  -0.000  50.105

 ******    2 imaginary frequencies (negative Signs) ******

                      1                      2                      3
                      A                      A                      A
 Frequencies --    -63.6653               -63.3664               128.5557
 Red. masses --      3.6167                 3.6197                12.1842
 Frc consts  --      0.0086                 0.0086                 0.1186
 IR Inten    --     21.2110                21.2202                20.2604

                      4                      5                      6
                      A                      A                      A
 Frequencies --    372.8930               373.1206               926.2379
 Red. masses --      3.4814                 3.4811                 4.7949
 Frc consts  --      0.2852                 0.2855                 2.4237
 IR Inten    --      1.2835                 1.2766                11.5436

                      7                      8                      9
                      A                      A                      A
 Frequencies --   1018.2553              1018.5089              1355.1141
 Red. masses --      1.5100                 1.5096                 1.2180
 Frc consts  --      0.9225                 0.9226                 1.3178
 IR Inten    --      1.4624                 1.4637                40.7248

                     10                     11                     12
                      A                      A                      A
 Frequencies --   1444.3896              1444.6278              2349.9450
 Red. masses --      1.0402                 1.0402                12.5033
 Frc consts  --      1.2786                 1.2790                40.6808
 IR Inten    --     12.6710                12.6728                51.4094

                     13                     14                     15
                      A                      A                      A
 Frequencies --   3089.0328              3171.8117              3171.9898
 Red. masses --      1.0337                 1.1031                 1.1031
 Frc consts  --      5.8114                 6.5384                 6.5393
 IR Inten    --      2.0760                 0.2783                 0.2820

 - Thermochemistry -
 -------------------
 Temperature   298.150 Kelvin.  Pressure   1.00000 Atm.
 Atom     1 has atomic number  6 and mass  12.00000

 Molecular mass:    75.99540 amu.
 Principal axes and moments of inertia in atomic units:
                           1         2         3
     Eigenvalues --    11.277921552.741041552.74519
           X            1.00000   0.00008  -0.00000
           Y           -0.00000   0.00484   0.99999
           Z           -0.00008   0.99999  -0.00484
 This molecule is an asymmetric top.
 Rotational symmetry number  1.
 Rotational temperatures (Kelvin)      7.67996     0.05578     0.05578
 Rotational constants (GHZ):         160.02436     1.16229     1.16229
    2 imaginary frequencies ignored.
 Zero-point vibrational energy     118816.0 (Joules/Mol)
                                   28.39770 (Kcal/Mol)
 Warning -- explicit consideration of   3 degrees of freedom as
           vibrations may cause significant error
 Vibrational temperatures:    184.96   536.51   536.84  1332.65  1465.04
          (Kelvin)           1465.41  1949.71  2078.15  2078.50  3381.05
                             4444.43  4563.53  4563.79

 Zero-point correction=                           0.045255 (Hartree/Particle)
 Thermal correction to Energy=                    0.049581
 Thermal correction to Enthalpy=                  0.050525
 Thermal correction to Gibbs Free Energy=         0.017662
 Sum of electronic and zero-point Energies=           -593.014527
 Sum of electronic and thermal Energies=              -593.010201
 Sum of electronic and thermal Enthalpies=            -593.009257
 Sum of electronic and thermal Free Energies=         -593.042119

                     E (Thermal)             CV                S
                      KCal/Mol        Cal/Mol-Kelvin    Cal/Mol-Kelvin
 Total                   31.112             12.430             69.165
 Electronic               0.000              0.000              0.000
 Translational            0.889              2.981             38.900
 Rotational               0.889              2.981             24.812
 Vibrational             29.335              6.468              5.454
 Vibration     1          0.611              1.925              2.968
 Vibration     2          0.744              1.528              1.068
 Vibration     3          0.745              1.527              1.067

 Normal termination of Gaussian 16 at Sun Oct 13 09:47:52 2024.
