 Gaussian 16, Revision B.01,
 Gaussian 16:  ES64L-G16RevB.01 20-Dec-2017

 ---------------------------------------------------------------------
 #p b3lyp 6-31++g(d,p) scf=verytight NoSymm freq=noraman int=ultrafine
 ---------------------------------------------------------------------

 ------------------------
 RxCoord=-6.78699 DE=1.56
 ------------------------
 Symbolic Z-matrix:
 Charge = -1 Multiplicity = 1

                          Input orientation:
 ---------------------------------------------------------------------
 Center     Atomic      Atomic             Coordinates (Angstroms)
 Number     Number       Type             X           Y           Z
 ---------------------------------------------------------------------
      1          6           0        0.767626    0.000077    0.000488
      2         17           0       -2.414941   -0.000014    0.000116
      3          1           0        0.385901    0.002522   -1.021480
      4          1           0        0.386368    0.884002    0.514033
      5          1           0        0.386169   -0.886064    0.509832
      6          6           0        2.222669   -0.000032   -0.000266
      7          7           0        3.384733   -0.000036   -0.000652
 ---------------------------------------------------------------------

 SCF Done:  E(RB3LYP) =  -593.059720705     A.U. after   13 cycles

 Alpha  occ. eigenvalues -- -101.25499 -14.22643 -10.12334 -10.09326  -9.16853
 Alpha  occ. eigenvalues --   -6.92638  -6.92638  -6.92617  -0.79651  -0.64153
 Alpha  occ. eigenvalues --   -0.50728  -0.37908  -0.32485  -0.32477  -0.25725
 Alpha  occ. eigenvalues --   -0.21522  -0.21521  -0.05358  -0.05315  -0.05315
 Alpha virt. eigenvalues --    0.10193   0.13743   0.13745   0.14370   0.14870
 Alpha virt. eigenvalues --    0.14871   0.19974   0.20649   0.20650   0.21941
 Alpha virt. eigenvalues --    0.23279   0.23281   0.25420   0.25994   0.25995

 Mulliken charges:
               1
     1  C   -0.005525
     2  Cl  -0.920820
     3  H    0.218235
     4  H    0.218234
     5  H    0.218275
     6  C   -0.146421
     7  N   -0.581978
 Sum of Mulliken charges =  -1.00000

 Dipole moment (field-independent basis, Debye):
    X=              5.8325    Y=              0.0003    Z=              0.0016  Tot=              5.8325
 Quadrupole moment (field-independent basis, Debye-Ang):
   XX=            -87.0873   YY=            -35.4198   ZZ=            -35.4178
   XY=              0.0003   XZ=              0.0068   YZ=              0.0000

  Exact polarizability:  78.944  -0.001  41.500  -0.009   0.000  41.504
 Approx polarizability:  97.643  -0.001  50.114  -0.014   0.001  50.120

 ******    2 imaginary frequencies (negative Signs) ******

                      1                      2                      3
                      A                      A                      A
 Frequencies --    -63.8439               -63.5937               131.2153
 Red. masses --      3.6244                 3.6270                12.2034
 Frc consts  --      0.0087                 0.0086                 0.1238
 IR Inten    --     21.2498                21.2570                20.2350

                      4                      5                      6
                      A                      A                      A
 Frequencies --    373.2205               373.4096               926.6000
 Red. masses --      3.4784                 3.4784                 4.7990
 Frc consts  --      0.2855                 0.2858                 2.4276
 IR Inten    --      1.2719                 1.2665                11.6601

                      7                      8                      9
                      A                      A                      A
 Frequencies --   1018.4468              1018.7013              1354.6313
 Red. masses --      1.5092                 1.5088                 1.2176
 Frc consts  --      0.9223                 0.9225                 1.3164
 IR Inten    --      1.4674                 1.4671                41.0471

                     10                     11                     12
                      A                      A                      A
 Frequencies --   1444.1384              1444.4506              2349.9987
 Red. masses --      1.0402                 1.0402                12.5024
 Frc consts  --      1.2781                 1.2787                40.6800
 IR Inten    --     12.6215                12.6272                51.7661

                     13                     14                     15
                      A                      A                      A
 Frequencies --   3088.6206              3171.1477              3171.9830
 Red. masses --      1.0336                 1.1031                 1.1031
 Frc consts  --      5.8097                 6.5357                 6.5394
 IR Inten    --      2.1097                 0.2829                 0.2891

 - Thermochemistry -
 -------------------
 Temperature   298.150 Kelvin.  Pressure   1.00000 Atm.
 Atom     1 has atomic number  6 and mass  12.00000

 Molecular mass:    75.99540 amu.
 Principal axes and moments of inertia in atomic units:
                           1         2         3
     Eigenvalues --    11.279871545.360651545.36434
           X            1.00000   0.00010  -0.00001
           Y           -0.00000   0.08519   0.99637
           Z           -0.00010   0.99637  -0.08519
 This molecule is an asymmetric top.
 Rotational symmetry number  1.
 Rotational temperatures (Kelvin)      7.67863     0.05605     0.05605
 Rotational constants (GHZ):         159.99658     1.16784     1.16784
    2 imaginary frequencies ignored.
 Zero-point vibrational energy     118828.4 (Joules/Mol)
                                   28.40068 (Kcal/Mol)
 Warning -- explicit consideration of   3 degrees of freedom as
           vibrations may cause significant error
 Vibrational temperatures:    188.79   536.98   537.25  1333.17  1465.32
          (Kelvin)           1465.68  1949.01  2077.79  2078.24  3381.12
                             4443.84  4562.57  4563.78

 Zero-point correction=                           0.045259 (Hartree/Particle)
 Thermal correction to Energy=                    0.049580
 Thermal correction to Enthalpy=                  0.050524
 Thermal correction to Gibbs Free Energy=         0.017686
 Sum of electronic and zero-point Energies=           -593.014461
 Sum of electronic and thermal Energies=              -593.010141
 Sum of electronic and thermal Enthalpies=            -593.009197
 Sum of electronic and thermal Free Energies=         -593.042035

                     E (Thermal)             CV                S
                      KCal/Mol        Cal/Mol-Kelvin    Cal/Mol-Kelvin
 Total                   31.112             12.425             69.114
 Electronic               0.000              0.000              0.000
 Translational            0.889              2.981             38.900
 Rotational               0.889              2.981             24.802
 Vibrational             29.334              6.464              5.411
 Vibration     1          0.612              1.922              2.928
 Vibration     2          0.745              1.527              1.067
 Vibration     3          0.745              1.527              1.066

 Normal termination of Gaussian 16 at Sun Oct 13 09:48:02 2024.
