 Gaussian 16, Revision B.01,
 Gaussian 16:  ES64L-G16RevB.01 20-Dec-2017

 ---------------------------------------------------------------------
 #p b3lyp 6-31++g(d,p) scf=verytight NoSymm freq=noraman int=ultrafine
 ---------------------------------------------------------------------

 ------------------------
 RxCoord=-6.68710 DE=1.65
 ------------------------
 Symbolic Z-matrix:
 Charge = -1 Multiplicity = 1

                          Input orientation:
 ---------------------------------------------------------------------
 Center     Atomic      Atomic             Coordinates (Angstroms)
 Number     Number       Type             X           Y           Z
 ---------------------------------------------------------------------
      1          6           0        0.762143    0.000147    0.000440
      2         17           0       -2.408376   -0.000025    0.000160
      3          1           0        0.380300    0.002680   -1.021741
      4          1           0        0.382026    0.883878    0.513903
      5          1           0        0.380825   -0.886109    0.509990
      6          6           0        2.217011   -0.000096   -0.000395
      7          7           0        3.378988   -0.000014   -0.000592
 ---------------------------------------------------------------------

 SCF Done:  E(RB3LYP) =  -593.059647976     A.U. after   13 cycles

 Alpha  occ. eigenvalues -- -101.25500 -14.22606 -10.12294 -10.09276  -9.16856
 Alpha  occ. eigenvalues --   -6.92641  -6.92641  -6.92618  -0.79622  -0.64118
 Alpha  occ. eigenvalues --   -0.50739  -0.37860  -0.32452  -0.32442  -0.25693
 Alpha  occ. eigenvalues --   -0.21490  -0.21488  -0.05361  -0.05324  -0.05324
 Alpha virt. eigenvalues --    0.10209   0.13768   0.13770   0.14380   0.14898
 Alpha virt. eigenvalues --    0.14899   0.19984   0.20665   0.20666   0.21940
 Alpha virt. eigenvalues --    0.23300   0.23302   0.25443   0.26001   0.26002

 Mulliken charges:
               1
     1  C   -0.002207
     2  Cl  -0.920042
     3  H    0.218317
     4  H    0.218330
     5  H    0.218352
     6  C   -0.150091
     7  N   -0.582658
 Sum of Mulliken charges =  -1.00000

 Dipole moment (field-independent basis, Debye):
    X=              5.7970    Y=              0.0003    Z=              0.0011  Tot=              5.7970
 Quadrupole moment (field-independent basis, Debye-Ang):
   XX=            -86.9174   YY=            -35.4163   ZZ=            -35.4140
   XY=              0.0008   XZ=              0.0074   YZ=             -0.0002

  Exact polarizability:  78.970   0.003  41.488  -0.005  -0.003  41.497
 Approx polarizability:  97.677   0.007  50.123  -0.005  -0.005  50.136

 ******    2 imaginary frequencies (negative Signs) ******

                      1                      2                      3
                      A                      A                      A
 Frequencies --    -65.1701               -64.1628               133.8884
 Red. masses --      3.6274                 3.6384                12.2234
 Frc consts  --      0.0091                 0.0088                 0.1291
 IR Inten    --     21.2827                21.3105                20.2049

                      4                      5                      6
                      A                      A                      A
 Frequencies --    372.6052               373.5020               927.0416
 Red. masses --      3.4735                 3.4732                 4.8037
 Frc consts  --      0.2841                 0.2855                 2.4323
 IR Inten    --      1.2703                 1.2451                11.7793

                      7                      8                      9
                      A                      A                      A
 Frequencies --   1018.3724              1018.8540              1353.8881
 Red. masses --      1.5094                 1.5079                 1.2172
 Frc consts  --      0.9223                 0.9223                 1.3145
 IR Inten    --      1.4644                 1.4749                41.2868

                     10                     11                     12
                      A                      A                      A
 Frequencies --   1443.7599              1444.1774              2350.6270
 Red. masses --      1.0401                 1.0402                12.5018
 Frc consts  --      1.2774                 1.2783                40.6997
 IR Inten    --     12.5501                12.5973                52.1028

                     13                     14                     15
                      A                      A                      A
 Frequencies --   3089.0042              3170.1877              3174.4510
 Red. masses --      1.0337                 1.1031                 1.1031
 Frc consts  --      5.8112                 6.5319                 6.5492
 IR Inten    --      2.1319                 0.2926                 0.2966

 - Thermochemistry -
 -------------------
 Temperature   298.150 Kelvin.  Pressure   1.00000 Atm.
 Atom     1 has atomic number  6 and mass  12.00000

 Molecular mass:    75.99540 amu.
 Principal axes and moments of inertia in atomic units:
                           1         2         3
     Eigenvalues --    11.281391537.984431537.99127
           X            1.00000   0.00011   0.00002
           Y            0.00000  -0.22467   0.97444
           Z           -0.00011   0.97444   0.22467
 This molecule is an asymmetric top.
 Rotational symmetry number  1.
 Rotational temperatures (Kelvin)      7.67759     0.05632     0.05632
 Rotational constants (GHZ):         159.97507     1.17345     1.17344
    2 imaginary frequencies ignored.
 Zero-point vibrational energy     118851.1 (Joules/Mol)
                                   28.40610 (Kcal/Mol)
 Warning -- explicit consideration of   3 degrees of freedom as
           vibrations may cause significant error
 Vibrational temperatures:    192.64   536.10   537.39  1333.81  1465.21
          (Kelvin)           1465.90  1947.94  2077.25  2077.85  3382.03
                             4444.39  4561.19  4567.33

 Zero-point correction=                           0.045268 (Hartree/Particle)
 Thermal correction to Energy=                    0.049584
 Thermal correction to Enthalpy=                  0.050528
 Thermal correction to Gibbs Free Energy=         0.017712
 Sum of electronic and zero-point Energies=           -593.014380
 Sum of electronic and thermal Energies=              -593.010064
 Sum of electronic and thermal Enthalpies=            -593.009120
 Sum of electronic and thermal Free Energies=         -593.041936

                     E (Thermal)             CV                S
                      KCal/Mol        Cal/Mol-Kelvin    Cal/Mol-Kelvin
 Total                   31.115             12.424             69.068
 Electronic               0.000              0.000              0.000
 Translational            0.889              2.981             38.900
 Rotational               0.889              2.981             24.793
 Vibrational             29.337              6.462              5.375
 Vibration     1          0.613              1.919              2.889
 Vibration     2          0.744              1.528              1.069
 Vibration     3          0.745              1.527              1.065

 Normal termination of Gaussian 16 at Sun Oct 13 09:48:02 2024.
