 Gaussian 16, Revision B.01,
 Gaussian 16:  ES64L-G16RevB.01 20-Dec-2017

 ---------------------------------------------------------------------
 #p b3lyp 6-31++g(d,p) scf=verytight NoSymm freq=noraman int=ultrafine
 ---------------------------------------------------------------------

 ------------------------
 RxCoord=-6.58923 DE=1.74
 ------------------------
 Symbolic Z-matrix:
 Charge = -1 Multiplicity = 1

                          Input orientation:
 ---------------------------------------------------------------------
 Center     Atomic      Atomic             Coordinates (Angstroms)
 Number     Number       Type             X           Y           Z
 ---------------------------------------------------------------------
      1          6           0        0.757076   -0.000037    0.000234
      2         17           0       -2.401996    0.000014    0.000224
      3          1           0        0.378485    0.003044   -1.020741
      4          1           0        0.373008    0.885092    0.514632
      5          1           0        0.378359   -0.885317    0.509894
      6          6           0        2.211312   -0.000341   -0.000670
      7          7           0        3.373239    0.000085   -0.000458
 ---------------------------------------------------------------------

 SCF Done:  E(RB3LYP) =  -593.059553065     A.U. after   13 cycles

 Alpha  occ. eigenvalues -- -101.25499 -14.22568 -10.12253 -10.09219  -9.16857
 Alpha  occ. eigenvalues --   -6.92642  -6.92642  -6.92619  -0.79592  -0.64100
 Alpha  occ. eigenvalues --   -0.50748  -0.37818  -0.32475  -0.32376  -0.25662
 Alpha  occ. eigenvalues --   -0.21464  -0.21446  -0.05362  -0.05332  -0.05332
 Alpha virt. eigenvalues --    0.10225   0.13781   0.13803   0.14391   0.14925
 Alpha virt. eigenvalues --    0.14931   0.19993   0.20678   0.20685   0.21940
 Alpha virt. eigenvalues --    0.23313   0.23328   0.25466   0.26007   0.26010

 Mulliken charges:
               1
     1  C    0.001051
     2  Cl  -0.919342
     3  H    0.218312
     4  H    0.218553
     5  H    0.218355
     6  C   -0.153487
     7  N   -0.583442
 Sum of Mulliken charges =  -1.00000

 Dipole moment (field-independent basis, Debye):
    X=              5.7633    Y=              0.0007    Z=              0.0010  Tot=              5.7633
 Quadrupole moment (field-independent basis, Debye-Ang):
   XX=            -86.7535   YY=            -35.4124   ZZ=            -35.4086
   XY=             -0.0046   XZ=              0.0034   YZ=             -0.0014

  Exact polarizability:  78.983  -0.018  41.487  -0.019   0.014  41.471
 Approx polarizability:  97.701  -0.026  50.147  -0.025   0.021  50.122

 ******    2 imaginary frequencies (negative Signs) ******

                      1                      2                      3
                      A                      A                      A
 Frequencies --    -69.0213               -64.8112               136.4543
 Red. masses --      3.6031                 3.6491                12.2428
 Frc consts  --      0.0101                 0.0090                 0.1343
 IR Inten    --     21.2657                21.3770                20.1714

                      4                      5                      6
                      A                      A                      A
 Frequencies --    370.1671               374.1657               928.5880
 Red. masses --      3.4727                 3.4721                 4.7986
 Frc consts  --      0.2804                 0.2864                 2.4379
 IR Inten    --      1.3247                 1.2209                11.8734

                      7                      8                      9
                      A                      A                      A
 Frequencies --   1017.7640              1018.3752              1352.7442
 Red. masses --      1.5127                 1.5074                 1.2174
 Frc consts  --      0.9232                 0.9211                 1.3125
 IR Inten    --      1.4331                 1.5221                41.5060

                     10                     11                     12
                      A                      A                      A
 Frequencies --   1441.3259              1445.2629              2351.2761
 Red. masses --      1.0398                 1.0405                12.5007
 Frc consts  --      1.2727                 1.2805                40.7186
 IR Inten    --     12.3732                12.6985                52.5949

                     13                     14                     15
                      A                      A                      A
 Frequencies --   3087.4195              3165.7115              3189.1963
 Red. masses --      1.0371                 1.0990                 1.1033
 Frc consts  --      5.8246                 6.4889                 6.6118
 IR Inten    --      2.0664                 0.3678                 0.3397

 - Thermochemistry -
 -------------------
 Temperature   298.150 Kelvin.  Pressure   1.00000 Atm.
 Atom     1 has atomic number  6 and mass  12.00000

 Molecular mass:    75.99540 amu.
 Principal axes and moments of inertia in atomic units:
                           1         2         3
     Eigenvalues --    11.279071530.761941530.76911
           X            1.00000   0.00010   0.00009
           Y           -0.00002   0.77993  -0.62587
           Z           -0.00014   0.62587   0.77993
 This molecule is an asymmetric top.
 Rotational symmetry number  1.
 Rotational temperatures (Kelvin)      7.67917     0.05658     0.05658
 Rotational constants (GHZ):         160.00800     1.17898     1.17898
    2 imaginary frequencies ignored.
 Zero-point vibrational energy     118899.5 (Joules/Mol)
                                   28.41767 (Kcal/Mol)
 Warning -- explicit consideration of   3 degrees of freedom as
           vibrations may cause significant error
 Vibrational temperatures:    196.33   532.59   538.34  1336.03  1464.34
          (Kelvin)           1465.21  1946.30  2073.75  2079.41  3382.96
                             4442.11  4554.75  4588.54

 Zero-point correction=                           0.045286 (Hartree/Particle)
 Thermal correction to Energy=                    0.049600
 Thermal correction to Enthalpy=                  0.050544
 Thermal correction to Gibbs Free Energy=         0.017746
 Sum of electronic and zero-point Energies=           -593.014267
 Sum of electronic and thermal Energies=              -593.009953
 Sum of electronic and thermal Enthalpies=            -593.009009
 Sum of electronic and thermal Free Energies=         -593.041807

                     E (Thermal)             CV                S
                      KCal/Mol        Cal/Mol-Kelvin    Cal/Mol-Kelvin
 Total                   31.124             12.425             69.029
 Electronic               0.000              0.000              0.000
 Translational            0.889              2.981             38.900
 Rotational               0.889              2.981             24.784
 Vibrational             29.347              6.463              5.345
 Vibration     1          0.614              1.917              2.853
 Vibration     2          0.742              1.534              1.079
 Vibration     3          0.745              1.525              1.063

 Normal termination of Gaussian 16 at Sun Oct 13 09:48:04 2024.
