 Gaussian 16, Revision B.01,
 Gaussian 16:  ES64L-G16RevB.01 20-Dec-2017

 ---------------------------------------------------------------------
 #p b3lyp 6-31++g(d,p) scf=verytight NoSymm freq=noraman int=ultrafine
 ---------------------------------------------------------------------

 ------------------------
 RxCoord=-6.49093 DE=1.84
 ------------------------
 Symbolic Z-matrix:
 Charge = -1 Multiplicity = 1

                          Input orientation:
 ---------------------------------------------------------------------
 Center     Atomic      Atomic             Coordinates (Angstroms)
 Number     Number       Type             X           Y           Z
 ---------------------------------------------------------------------
      1          6           0        0.751718   -0.000075    0.000150
      2         17           0       -2.395683    0.000008    0.000243
      3          1           0        0.367169    0.001729   -1.021961
      4          1           0        0.374647    0.882650    0.512899
      5          1           0        0.368714   -0.886748    0.508982
      6          6           0        2.206031    0.000228   -0.000328
      7          7           0        3.367982    0.000019   -0.000449
 ---------------------------------------------------------------------

 SCF Done:  E(RB3LYP) =  -593.059504186     A.U. after   13 cycles

 Alpha  occ. eigenvalues -- -101.25503 -14.22538 -10.12222 -10.09170  -9.16863
 Alpha  occ. eigenvalues --   -6.92648  -6.92648  -6.92624  -0.79560  -0.64050
 Alpha  occ. eigenvalues --   -0.50764  -0.37793  -0.32415  -0.32326  -0.25635
 Alpha  occ. eigenvalues --   -0.21429  -0.21415  -0.05369  -0.05345  -0.05345
 Alpha virt. eigenvalues --    0.10244   0.13805   0.13823   0.14401   0.14946
 Alpha virt. eigenvalues --    0.14954   0.20003   0.20695   0.20700   0.21939
 Alpha virt. eigenvalues --    0.23339   0.23354   0.25488   0.26014   0.26015

 Mulliken charges:
               1
     1  C    0.004005
     2  Cl  -0.918429
     3  H    0.218784
     4  H    0.218331
     5  H    0.218713
     6  C   -0.157639
     7  N   -0.583765
 Sum of Mulliken charges =  -1.00000

 Dipole moment (field-independent basis, Debye):
    X=              5.7257    Y=             -0.0010    Z=             -0.0005  Tot=              5.7257
 Quadrupole moment (field-independent basis, Debye-Ang):
   XX=            -86.5847   YY=            -35.4092   ZZ=            -35.4107
   XY=              0.0043   XZ=              0.0098   YZ=              0.0019

  Exact polarizability:  79.056   0.017  41.456   0.007  -0.012  41.475
 Approx polarizability:  97.804   0.027  50.130   0.016  -0.016  50.156

 ******    2 imaginary frequencies (negative Signs) ******

                      1                      2                      3
                      A                      A                      A
 Frequencies --    -67.8684               -64.1909               139.2417
 Red. masses --      3.6183                 3.6578                12.2639
 Frc consts  --      0.0098                 0.0089                 0.1401
 IR Inten    --     21.3054                21.4142                20.1579

                      4                      5                      6
                      A                      A                      A
 Frequencies --    371.2827               374.7733               928.3899
 Red. masses --      3.4662                 3.4656                 4.8066
 Frc consts  --      0.2815                 0.2868                 2.4409
 IR Inten    --      1.2960                 1.2015                11.9781

                      7                      8                      9
                      A                      A                      A
 Frequencies --   1017.6187              1018.1460              1352.5683
 Red. masses --      1.5116                 1.5071                 1.2166
 Frc consts  --      0.9222                 0.9205                 1.3113
 IR Inten    --      1.4628                 1.5410                42.2031

                     10                     11                     12
                      A                      A                      A
 Frequencies --   1441.3666              1444.8115              2350.9483
 Red. masses --      1.0399                 1.0405                12.4996
 Frc consts  --      1.2728                 1.2797                40.7036
 IR Inten    --     12.3500                12.6804                52.9572

                     13                     14                     15
                      A                      A                      A
 Frequencies --   3088.8624              3162.6747              3188.5595
 Red. masses --      1.0352                 1.1028                 1.1016
 Frc consts  --      5.8194                 6.4994                 6.5985
 IR Inten    --      2.2268                 0.2824                 0.3614

 - Thermochemistry -
 -------------------
 Temperature   298.150 Kelvin.  Pressure   1.00000 Atm.
 Atom     1 has atomic number  6 and mass  12.00000

 Molecular mass:    75.99540 amu.
 Principal axes and moments of inertia in atomic units:
                           1         2         3
     Eigenvalues --    11.271851523.807071523.81206
           X            1.00000   0.00011   0.00001
           Y            0.00002  -0.29911   0.95422
           Z           -0.00010   0.95422   0.29911
 This molecule is an asymmetric top.
 Rotational symmetry number  1.
 Rotational temperatures (Kelvin)      7.68409     0.05684     0.05684
 Rotational constants (GHZ):         160.11054     1.18436     1.18436
    2 imaginary frequencies ignored.
 Zero-point vibrational energy     118904.3 (Joules/Mol)
                                   28.41881 (Kcal/Mol)
 Warning -- explicit consideration of   3 degrees of freedom as
           vibrations may cause significant error
 Vibrational temperatures:    200.34   534.19   539.22  1335.75  1464.13
          (Kelvin)           1464.88  1946.04  2073.81  2078.76  3382.49
                             4444.18  4550.38  4587.63

 Zero-point correction=                           0.045288 (Hartree/Particle)
 Thermal correction to Energy=                    0.049595
 Thermal correction to Enthalpy=                  0.050539
 Thermal correction to Gibbs Free Energy=         0.017768
 Sum of electronic and zero-point Energies=           -593.014216
 Sum of electronic and thermal Energies=              -593.009909
 Sum of electronic and thermal Enthalpies=            -593.008965
 Sum of electronic and thermal Free Energies=         -593.041737

                     E (Thermal)             CV                S
                      KCal/Mol        Cal/Mol-Kelvin    Cal/Mol-Kelvin
 Total                   31.121             12.419             68.974
 Electronic               0.000              0.000              0.000
 Translational            0.889              2.981             38.900
 Rotational               0.889              2.981             24.774
 Vibrational             29.344              6.458              5.300
 Vibration     1          0.615              1.914              2.814
 Vibration     2          0.743              1.531              1.074
 Vibration     3          0.746              1.524              1.060

 Normal termination of Gaussian 16 at Sun Oct 13 09:48:15 2024.
