 Gaussian 16, Revision B.01,
 Gaussian 16:  ES64L-G16RevB.01 20-Dec-2017

 ---------------------------------------------------------------------
 #p b3lyp 6-31++g(d,p) scf=verytight NoSymm freq=noraman int=ultrafine
 ---------------------------------------------------------------------

 ------------------------
 RxCoord=-6.39110 DE=1.94
 ------------------------
 Symbolic Z-matrix:
 Charge = -1 Multiplicity = 1

                          Input orientation:
 ---------------------------------------------------------------------
 Center     Atomic      Atomic             Coordinates (Angstroms)
 Number     Number       Type             X           Y           Z
 ---------------------------------------------------------------------
      1          6           0        0.746345    0.000044    0.000197
      2         17           0       -2.389182   -0.000004    0.000242
      3          1           0        0.364405    0.002643   -1.020892
      4          1           0        0.363456    0.883813    0.513671
      5          1           0        0.365282   -0.885634    0.509438
      6          6           0        2.200432   -0.000058   -0.000589
      7          7           0        3.362399   -0.000036   -0.000428
 ---------------------------------------------------------------------

 SCF Done:  E(RB3LYP) =  -593.059434142     A.U. after   13 cycles

 Alpha  occ. eigenvalues -- -101.25505 -14.22504 -10.12186 -10.09119  -9.16867
 Alpha  occ. eigenvalues --   -6.92652  -6.92652  -6.92627  -0.79528  -0.64010
 Alpha  occ. eigenvalues --   -0.50777  -0.37759  -0.32341  -0.32311  -0.25605
 Alpha  occ. eigenvalues --   -0.21390  -0.21384  -0.05373  -0.05356  -0.05356
 Alpha virt. eigenvalues --    0.10262   0.13833   0.13840   0.14411   0.14974
 Alpha virt. eigenvalues --    0.14976   0.20013   0.20712   0.20715   0.21938
 Alpha virt. eigenvalues --    0.23368   0.23373   0.25511   0.26020   0.26021

 Mulliken charges:
               1
     1  C    0.007139
     2  Cl  -0.917568
     3  H    0.218752
     4  H    0.218809
     5  H    0.218697
     6  C   -0.161551
     7  N   -0.584278
 Sum of Mulliken charges =  -1.00000

 Dipole moment (field-independent basis, Debye):
    X=              5.6888    Y=              0.0004    Z=              0.0003  Tot=              5.6888
 Quadrupole moment (field-independent basis, Debye-Ang):
   XX=            -86.4156   YY=            -35.4086   ZZ=            -35.4070
   XY=             -0.0011   XZ=              0.0057   YZ=             -0.0006

  Exact polarizability:  79.111  -0.006  41.454  -0.008   0.004  41.452
 Approx polarizability:  97.887  -0.010  50.156  -0.007   0.005  50.151

 ******    2 imaginary frequencies (negative Signs) ******

                      1                      2                      3
                      A                      A                      A
 Frequencies --    -66.5501               -65.4918               142.0762
 Red. masses --      3.6403                 3.6518                12.2864
 Frc consts  --      0.0095                 0.0092                 0.1461
 IR Inten    --     21.3854                21.4124                20.1335

                      4                      5                      6
                      A                      A                      A
 Frequencies --    373.0695               374.0967               928.9353
 Red. masses --      3.4624                 3.4626                 4.8088
 Frc consts  --      0.2839                 0.2855                 2.4449
 IR Inten    --      1.2471                 1.2218                12.0847

                      7                      8                      9
                      A                      A                      A
 Frequencies --   1017.8267              1017.9258              1352.2332
 Red. masses --      1.5090                 1.5083                 1.2162
 Frc consts  --      0.9211                 0.9208                 1.3102
 IR Inten    --      1.5127                 1.5252                42.7346

                     10                     11                     12
                      A                      A                      A
 Frequencies --   1442.2285              1443.4548              2350.8607
 Red. masses --      1.0401                 1.0403                12.4985
 Frc consts  --      1.2746                 1.2770                40.6969
 IR Inten    --     12.4285                12.5219                53.4024

                     13                     14                     15
                      A                      A                      A
 Frequencies --   3090.8292              3170.5398              3178.0363
 Red. masses --      1.0339                 1.1027                 1.1031
 Frc consts  --      5.8195                 6.5311                 6.5645
 IR Inten    --      2.3235                 0.3047                 0.3179

 - Thermochemistry -
 -------------------
 Temperature   298.150 Kelvin.  Pressure   1.00000 Atm.
 Atom     1 has atomic number  6 and mass  12.00000

 Molecular mass:    75.99540 amu.
 Principal axes and moments of inertia in atomic units:
                           1         2         3
     Eigenvalues --    11.268811516.595881516.59683
           X            1.00000   0.00011  -0.00006
           Y           -0.00001   0.50776   0.86150
           Z           -0.00013   0.86150  -0.50776
 This molecule is an asymmetric top.
 Rotational symmetry number  1.
 Rotational temperatures (Kelvin)      7.68616     0.05711     0.05711
 Rotational constants (GHZ):         160.15363     1.18999     1.18999
    2 imaginary frequencies ignored.
 Zero-point vibrational energy     118921.4 (Joules/Mol)
                                   28.42291 (Kcal/Mol)
 Warning -- explicit consideration of   3 degrees of freedom as
           vibrations may cause significant error
 Vibrational temperatures:    204.42   536.76   538.24  1336.53  1464.43
          (Kelvin)           1464.57  1945.56  2075.05  2076.81  3382.36
                             4447.01  4561.70  4572.49

 Zero-point correction=                           0.045295 (Hartree/Particle)
 Thermal correction to Energy=                    0.049595
 Thermal correction to Enthalpy=                  0.050539
 Thermal correction to Gibbs Free Energy=         0.017793
 Sum of electronic and zero-point Energies=           -593.014139
 Sum of electronic and thermal Energies=              -593.009839
 Sum of electronic and thermal Enthalpies=            -593.008895
 Sum of electronic and thermal Free Energies=         -593.041641

                     E (Thermal)             CV                S
                      KCal/Mol        Cal/Mol-Kelvin    Cal/Mol-Kelvin
 Total                   31.121             12.414             68.920
 Electronic               0.000              0.000              0.000
 Translational            0.889              2.981             38.900
 Rotational               0.889              2.981             24.764
 Vibrational             29.344              6.452              5.257
 Vibration     1          0.616              1.911              2.776
 Vibration     2          0.744              1.527              1.067
 Vibration     3          0.745              1.525              1.063

 Normal termination of Gaussian 16 at Sun Oct 13 09:48:14 2024.
