 Gaussian 16, Revision B.01,
 Gaussian 16:  ES64L-G16RevB.01 20-Dec-2017

 ---------------------------------------------------------------------
 #p b3lyp 6-31++g(d,p) scf=verytight NoSymm freq=noraman int=ultrafine
 ---------------------------------------------------------------------

 ------------------------
 RxCoord=-6.29113 DE=2.05
 ------------------------
 Symbolic Z-matrix:
 Charge = -1 Multiplicity = 1

                          Input orientation:
 ---------------------------------------------------------------------
 Center     Atomic      Atomic             Coordinates (Angstroms)
 Number     Number       Type             X           Y           Z
 ---------------------------------------------------------------------
      1          6           0        0.740846    0.000002    0.000145
      2         17           0       -2.382615    0.000000    0.000241
      3          1           0        0.357726    0.002350   -1.021069
      4          1           0        0.359645    0.883416    0.513344
      5          1           0        0.359199   -0.885969    0.509188
      6          6           0        2.194824    0.000040   -0.000565
      7          7           0        3.356712   -0.000022   -0.000348
 ---------------------------------------------------------------------

 SCF Done:  E(RB3LYP) =  -593.059342877     A.U. after   13 cycles

 Alpha  occ. eigenvalues -- -101.25506 -14.22467 -10.12147 -10.09068  -9.16870
 Alpha  occ. eigenvalues --   -6.92655  -6.92655  -6.92629  -0.79497  -0.63971
 Alpha  occ. eigenvalues --   -0.50790  -0.37717  -0.32289  -0.32282  -0.25574
 Alpha  occ. eigenvalues --   -0.21354  -0.21353  -0.05375  -0.05366  -0.05366
 Alpha virt. eigenvalues --    0.10279   0.13860   0.13862   0.14422   0.15003
 Alpha virt. eigenvalues --    0.15004   0.20024   0.20729   0.20730   0.21937
 Alpha virt. eigenvalues --    0.23393   0.23394   0.25533   0.26026   0.26027

 Mulliken charges:
               1
     1  C    0.010184
     2  Cl  -0.916725
     3  H    0.218938
     4  H    0.218792
     5  H    0.218821
     6  C   -0.165081
     7  N   -0.584927
 Sum of Mulliken charges =  -1.00000

 Dipole moment (field-independent basis, Debye):
    X=              5.6524    Y=             -0.0000    Z=             -0.0002  Tot=              5.6524
 Quadrupole moment (field-independent basis, Debye-Ang):
   XX=            -86.2466   YY=            -35.4047   ZZ=            -35.4047
   XY=              0.0005   XZ=              0.0065   YZ=              0.0002

  Exact polarizability:  79.154   0.001  41.439  -0.002  -0.001  41.442
 Approx polarizability:  97.944   0.001  50.163   0.004  -0.001  50.165

 ******    2 imaginary frequencies (negative Signs) ******

                      1                      2                      3
                      A                      A                      A
 Frequencies --    -66.6985               -66.4155               144.9599
 Red. masses --      3.6550                 3.6580                12.3104
 Frc consts  --      0.0096                 0.0095                 0.1524
 IR Inten    --     21.4409                21.4537                20.1043

                      4                      5                      6
                      A                      A                      A
 Frequencies --    373.4528               373.7253               929.2382
 Red. masses --      3.4562                 3.4558                 4.8155
 Frc consts  --      0.2840                 0.2844                 2.4499
 IR Inten    --      1.2200                 1.2108                12.2086

                      7                      8                      9
                      A                      A                      A
 Frequencies --   1017.8460              1017.8750              1351.6138
 Red. masses --      1.5082                 1.5079                 1.2155
 Frc consts  --      0.9206                 0.9205                 1.3083
 IR Inten    --      1.5263                 1.5323                43.1270

                     10                     11                     12
                      A                      A                      A
 Frequencies --   1442.4039              1442.6483              2351.3809
 Red. masses --      1.0401                 1.0402                12.4977
 Frc consts  --      1.2750                 1.2755                40.7124
 IR Inten    --     12.4169                12.4436                53.7675

                     13                     14                     15
                      A                      A                      A
 Frequencies --   3091.4443              3173.6191              3175.3846
 Red. masses --      1.0337                 1.1031                 1.1031
 Frc consts  --      5.8204                 6.5458                 6.5532
 IR Inten    --      2.3828                 0.3117                 0.3139

 - Thermochemistry -
 -------------------
 Temperature   298.150 Kelvin.  Pressure   1.00000 Atm.
 Atom     1 has atomic number  6 and mass  12.00000

 Molecular mass:    75.99540 amu.
 Principal axes and moments of inertia in atomic units:
                           1         2         3
     Eigenvalues --    11.267591509.321811509.32202
           X            1.00000   0.00009   0.00007
           Y            0.00000  -0.65347   0.75695
           Z           -0.00011   0.75695   0.65347
 This molecule is an asymmetric top.
 Rotational symmetry number  1.
 Rotational temperatures (Kelvin)      7.68699     0.05739     0.05739
 Rotational constants (GHZ):         160.17096     1.19573     1.19573
    2 imaginary frequencies ignored.
 Zero-point vibrational energy     118942.3 (Joules/Mol)
                                   28.42788 (Kcal/Mol)
 Warning -- explicit consideration of   3 degrees of freedom as
           vibrations may cause significant error
 Vibrational temperatures:    208.57   537.32   537.71  1336.97  1464.45
          (Kelvin)           1464.50  1944.67  2075.30  2075.65  3383.11
                             4447.90  4566.13  4568.67

 Zero-point correction=                           0.045303 (Hartree/Particle)
 Thermal correction to Energy=                    0.049598
 Thermal correction to Enthalpy=                  0.050542
 Thermal correction to Gibbs Free Energy=         0.017819
 Sum of electronic and zero-point Energies=           -593.014040
 Sum of electronic and thermal Energies=              -593.009745
 Sum of electronic and thermal Enthalpies=            -593.008801
 Sum of electronic and thermal Free Energies=         -593.041524

                     E (Thermal)             CV                S
                      KCal/Mol        Cal/Mol-Kelvin    Cal/Mol-Kelvin
 Total                   31.123             12.411             68.872
 Electronic               0.000              0.000              0.000
 Translational            0.889              2.981             38.900
 Rotational               0.889              2.981             24.755
 Vibrational             29.346              6.449              5.218
 Vibration     1          0.616              1.908              2.737
 Vibration     2          0.745              1.527              1.066
 Vibration     3          0.745              1.526              1.064

 Normal termination of Gaussian 16 at Sun Oct 13 09:48:15 2024.
