 Gaussian 16, Revision B.01,
 Gaussian 16:  ES64L-G16RevB.01 20-Dec-2017

 ---------------------------------------------------------------------
 #p b3lyp 6-31++g(d,p) scf=verytight NoSymm freq=noraman int=ultrafine
 ---------------------------------------------------------------------

 ------------------------
 RxCoord=-6.19116 DE=2.16
 ------------------------
 Symbolic Z-matrix:
 Charge = -1 Multiplicity = 1

                          Input orientation:
 ---------------------------------------------------------------------
 Center     Atomic      Atomic             Coordinates (Angstroms)
 Number     Number       Type             X           Y           Z
 ---------------------------------------------------------------------
      1          6           0        0.735501    0.000024    0.000127
      2         17           0       -2.376044   -0.000002    0.000225
      3          1           0        0.352702    0.002417   -1.020950
      4          1           0        0.354046    0.883561    0.513392
      5          1           0        0.354236   -0.885976    0.509211
      6          6           0        2.189040    0.000015   -0.000573
      7          7           0        3.350961   -0.000028   -0.000298
 ---------------------------------------------------------------------

 SCF Done:  E(RB3LYP) =  -593.059236676     A.U. after   13 cycles

 Alpha  occ. eigenvalues -- -101.25506 -14.22431 -10.12108 -10.09016  -9.16872
 Alpha  occ. eigenvalues --   -6.92658  -6.92657  -6.92630  -0.79463  -0.63939
 Alpha  occ. eigenvalues --   -0.50802  -0.37675  -0.32251  -0.32250  -0.25542
 Alpha  occ. eigenvalues --   -0.21317  -0.21316  -0.05377  -0.05376  -0.05376
 Alpha virt. eigenvalues --    0.10295   0.13882   0.13884   0.14432   0.15031
 Alpha virt. eigenvalues --    0.15032   0.20033   0.20745   0.20746   0.21936
 Alpha virt. eigenvalues --    0.23414   0.23415   0.25555   0.26033   0.26034

 Mulliken charges:
               1
     1  C    0.013397
     2  Cl  -0.915910
     3  H    0.219032
     4  H    0.218892
     5  H    0.218871
     6  C   -0.168700
     7  N   -0.585582
 Sum of Mulliken charges =  -1.00000

 Dipole moment (field-independent basis, Debye):
    X=              5.6163    Y=              0.0001    Z=             -0.0002  Tot=              5.6163
 Quadrupole moment (field-independent basis, Debye-Ang):
   XX=            -86.0809   YY=            -35.4011   ZZ=            -35.4012
   XY=              0.0001   XZ=              0.0057   YZ=             -0.0000

  Exact polarizability:  79.199  -0.001  41.428  -0.003   0.000  41.429
 Approx polarizability:  98.015  -0.001  50.177   0.002   0.000  50.174

 ******    2 imaginary frequencies (negative Signs) ******

                      1                      2                      3
                      A                      A                      A
 Frequencies --    -67.2733               -67.0454               147.8464
 Red. masses --      3.6584                 3.6613                12.3349
 Frc consts  --      0.0098                 0.0097                 0.1589
 IR Inten    --     21.4858                21.4813                20.0729

                      4                      5                      6
                      A                      A                      A
 Frequencies --    373.8109               374.0286               930.3013
 Red. masses --      3.4552                 3.4561                 4.8148
 Frc consts  --      0.2845                 0.2849                 2.4551
 IR Inten    --      1.2128                 1.2121                12.3240

                      7                      8                      9
                      A                      A                      A
 Frequencies --   1017.8687              1018.0134              1351.0743
 Red. masses --      1.5078                 1.5073                 1.2154
 Frc consts  --      0.9204                 0.9204                 1.3071
 IR Inten    --      1.5374                 1.5423                43.5193

                     10                     11                     12
                      A                      A                      A
 Frequencies --   1442.1077              1442.2623              2351.3037
 Red. masses --      1.0401                 1.0402                12.4965
 Frc consts  --      1.2745                 1.2748                40.7056
 IR Inten    --     12.3837                12.3840                54.2731

                     13                     14                     15
                      A                      A                      A
 Frequencies --   3091.6650              3174.1959              3175.4150
 Red. masses --      1.0336                 1.1031                 1.1031
 Frc consts  --      5.8211                 6.5483                 6.5534
 IR Inten    --      2.4323                 0.3172                 0.3234

 - Thermochemistry -
 -------------------
 Temperature   298.150 Kelvin.  Pressure   1.00000 Atm.
 Atom     1 has atomic number  6 and mass  12.00000

 Molecular mass:    75.99540 amu.
 Principal axes and moments of inertia in atomic units:
                           1         2         3
     Eigenvalues --    11.267951502.022821502.02437
           X            1.00000   0.00000   0.00011
           Y           -0.00000   0.99997   0.00755
           Z           -0.00011  -0.00755   0.99997
 This molecule is an asymmetric top.
 Rotational symmetry number  1.
 Rotational temperatures (Kelvin)      7.68675     0.05766     0.05766
 Rotational constants (GHZ):         160.16591     1.20154     1.20154
    2 imaginary frequencies ignored.
 Zero-point vibrational energy     118968.0 (Joules/Mol)
                                   28.43403 (Kcal/Mol)
 Warning -- explicit consideration of   3 degrees of freedom as
           vibrations may cause significant error
 Vibrational temperatures:    212.72   537.83   538.14  1338.50  1464.49
          (Kelvin)           1464.69  1943.89  2074.87  2075.09  3383.00
                             4448.22  4566.96  4568.71

 Zero-point correction=                           0.045313 (Hartree/Particle)
 Thermal correction to Energy=                    0.049602
 Thermal correction to Enthalpy=                  0.050546
 Thermal correction to Gibbs Free Energy=         0.017847
 Sum of electronic and zero-point Energies=           -593.013924
 Sum of electronic and thermal Energies=              -593.009635
 Sum of electronic and thermal Enthalpies=            -593.008691
 Sum of electronic and thermal Free Energies=         -593.041390

                     E (Thermal)             CV                S
                      KCal/Mol        Cal/Mol-Kelvin    Cal/Mol-Kelvin
 Total                   31.126             12.405             68.822
 Electronic               0.000              0.000              0.000
 Translational            0.889              2.981             38.900
 Rotational               0.889              2.981             24.745
 Vibrational             29.348              6.444              5.177
 Vibration     1          0.617              1.905              2.700
 Vibration     2          0.745              1.526              1.064
 Vibration     3          0.745              1.525              1.063

 Normal termination of Gaussian 16 at Sun Oct 13 09:48:17 2024.
