 Gaussian 16, Revision B.01,
 Gaussian 16:  ES64L-G16RevB.01 20-Dec-2017

 ---------------------------------------------------------------------
 #p b3lyp 6-31++g(d,p) scf=verytight NoSymm freq=noraman int=ultrafine
 ---------------------------------------------------------------------

 ------------------------
 RxCoord=-6.09118 DE=2.28
 ------------------------
 Symbolic Z-matrix:
 Charge = -1 Multiplicity = 1

                          Input orientation:
 ---------------------------------------------------------------------
 Center     Atomic      Atomic             Coordinates (Angstroms)
 Number     Number       Type             X           Y           Z
 ---------------------------------------------------------------------
      1          6           0        0.729940    0.000016    0.000147
      2         17           0       -2.369472   -0.000001    0.000194
      3          1           0        0.346881    0.002380   -1.021050
      4          1           0        0.348750    0.883617    0.513414
      5          1           0        0.349062   -0.886041    0.509175
      6          6           0        2.183465    0.000029   -0.000562
      7          7           0        3.345264   -0.000032   -0.000239
 ---------------------------------------------------------------------

 SCF Done:  E(RB3LYP) =  -593.059125651     A.U. after   13 cycles

 Alpha  occ. eigenvalues -- -101.25506 -14.22392 -10.12067 -10.08968  -9.16874
 Alpha  occ. eigenvalues --   -6.92660  -6.92660  -6.92631  -0.79433  -0.63897
 Alpha  occ. eigenvalues --   -0.50814  -0.37627  -0.32214  -0.32206  -0.25510
 Alpha  occ. eigenvalues --   -0.21284  -0.21284  -0.05386  -0.05386  -0.05378
 Alpha virt. eigenvalues --    0.10312   0.13907   0.13908   0.14442   0.15060
 Alpha virt. eigenvalues --    0.15062   0.20043   0.20761   0.20762   0.21935
 Alpha virt. eigenvalues --    0.23437   0.23438   0.25576   0.26039   0.26040

 Mulliken charges:
               1
     1  C    0.016303
     2  Cl  -0.915060
     3  H    0.219122
     4  H    0.218939
     5  H    0.218922
     6  C   -0.171930
     7  N   -0.586296
 Sum of Mulliken charges =  -1.00000

 Dipole moment (field-independent basis, Debye):
    X=              5.5803    Y=              0.0001    Z=             -0.0003  Tot=              5.5803
 Quadrupole moment (field-independent basis, Debye-Ang):
   XX=            -85.9143   YY=            -35.3973   ZZ=            -35.3980
   XY=              0.0000   XZ=              0.0054   YZ=              0.0001

  Exact polarizability:  79.242  -0.001  41.415  -0.001   0.001  41.418
 Approx polarizability:  98.067  -0.002  50.187   0.007   0.001  50.188

 ******    2 imaginary frequencies (negative Signs) ******

                      1                      2                      3
                      A                      A                      A
 Frequencies --    -67.6852               -67.5932               150.8175
 Red. masses --      3.6747                 3.6759                12.3615
 Frc consts  --      0.0099                 0.0099                 0.1657
 IR Inten    --     21.5423                21.5414                20.0401

                      4                      5                      6
                      A                      A                      A
 Frequencies --    373.8798               373.9715               930.3963
 Red. masses --      3.4477                 3.4477                 4.8247
 Frc consts  --      0.2840                 0.2841                 2.4607
 IR Inten    --      1.1861                 1.1838                12.4643

                      7                      8                      9
                      A                      A                      A
 Frequencies --   1018.0739              1018.2603              1350.4961
 Red. masses --      1.5066                 1.5063                 1.2145
 Frc consts  --      0.9200                 0.9202                 1.3051
 IR Inten    --      1.5466                 1.5454                43.8526

                     10                     11                     12
                      A                      A                      A
 Frequencies --   1441.8685              1442.0357              2352.0673
 Red. masses --      1.0402                 1.0402                12.4959
 Frc consts  --      1.2741                 1.2744                40.7303
 IR Inten    --     12.3182                12.3441                54.5956

                     13                     14                     15
                      A                      A                      A
 Frequencies --   3091.4324              3174.2308              3175.0807
 Red. masses --      1.0336                 1.1031                 1.1031
 Frc consts  --      5.8200                 6.5485                 6.5521
 IR Inten    --      2.4747                 0.3253                 0.3244

 - Thermochemistry -
 -------------------
 Temperature   298.150 Kelvin.  Pressure   1.00000 Atm.
 Atom     1 has atomic number  6 and mass  12.00000

 Molecular mass:    75.99540 amu.
 Principal axes and moments of inertia in atomic units:
                           1         2         3
     Eigenvalues --    11.269401494.786251494.78799
           X            1.00000   0.00002   0.00009
           Y           -0.00000   0.98532  -0.17070
           Z           -0.00009   0.17070   0.98532
 This molecule is an asymmetric top.
 Rotational symmetry number  1.
 Rotational temperatures (Kelvin)      7.68576     0.05794     0.05794
 Rotational constants (GHZ):         160.14523     1.20736     1.20736
    2 imaginary frequencies ignored.
 Zero-point vibrational energy     118984.2 (Joules/Mol)
                                   28.43791 (Kcal/Mol)
 Warning -- explicit consideration of   3 degrees of freedom as
           vibrations may cause significant error
 Vibrational temperatures:    216.99   537.93   538.06  1338.63  1464.78
          (Kelvin)           1465.05  1943.06  2074.53  2074.77  3384.10
                             4447.88  4567.01  4568.23

 Zero-point correction=                           0.045319 (Hartree/Particle)
 Thermal correction to Energy=                    0.049603
 Thermal correction to Enthalpy=                  0.050547
 Thermal correction to Gibbs Free Energy=         0.017870
 Sum of electronic and zero-point Energies=           -593.013807
 Sum of electronic and thermal Energies=              -593.009523
 Sum of electronic and thermal Enthalpies=            -593.008579
 Sum of electronic and thermal Free Energies=         -593.041256

                     E (Thermal)             CV                S
                      KCal/Mol        Cal/Mol-Kelvin    Cal/Mol-Kelvin
 Total                   31.126             12.402             68.774
 Electronic               0.000              0.000              0.000
 Translational            0.889              2.981             38.900
 Rotational               0.889              2.981             24.735
 Vibrational             29.349              6.440              5.139
 Vibration     1          0.618              1.902              2.662
 Vibration     2          0.745              1.526              1.064
 Vibration     3          0.745              1.526              1.063

 Normal termination of Gaussian 16 at Sun Oct 13 09:48:27 2024.
