 Gaussian 16, Revision B.01,
 Gaussian 16:  ES64L-G16RevB.01 20-Dec-2017

 ---------------------------------------------------------------------
 #p b3lyp 6-31++g(d,p) scf=verytight NoSymm freq=noraman int=ultrafine
 ---------------------------------------------------------------------

 ------------------------
 RxCoord=-5.99138 DE=2.41
 ------------------------
 Symbolic Z-matrix:
 Charge = -1 Multiplicity = 1

                          Input orientation:
 ---------------------------------------------------------------------
 Center     Atomic      Atomic             Coordinates (Angstroms)
 Number     Number       Type             X           Y           Z
 ---------------------------------------------------------------------
      1          6           0        0.724740    0.000086    0.000085
      2         17           0       -2.362921   -0.000014    0.000172
      3          1           0        0.343249    0.002443   -1.020597
      4          1           0        0.344206    0.883657    0.513274
      5          1           0        0.343219   -0.886431    0.509324
      6          6           0        2.177595    0.000027   -0.000536
      7          7           0        3.339400   -0.000038   -0.000188
 ---------------------------------------------------------------------

 SCF Done:  E(RB3LYP) =  -593.058992815     A.U. after   13 cycles

 Alpha  occ. eigenvalues -- -101.25505 -14.22354 -10.12024 -10.08911  -9.16874
 Alpha  occ. eigenvalues --   -6.92661  -6.92661  -6.92631  -0.79399  -0.63876
 Alpha  occ. eigenvalues --   -0.50826  -0.37584  -0.32194  -0.32175  -0.25477
 Alpha  occ. eigenvalues --   -0.21249  -0.21245  -0.05394  -0.05394  -0.05378
 Alpha virt. eigenvalues --    0.10328   0.13926   0.13933   0.14453   0.15091
 Alpha virt. eigenvalues --    0.15092   0.20053   0.20776   0.20779   0.21935
 Alpha virt. eigenvalues --    0.23456   0.23459   0.25599   0.26046   0.26047

 Mulliken charges:
               1
     1  C    0.019415
     2  Cl  -0.914294
     3  H    0.219183
     4  H    0.218982
     5  H    0.218965
     6  C   -0.175146
     7  N   -0.587105
 Sum of Mulliken charges =  -1.00000

 Dipole moment (field-independent basis, Debye):
    X=              5.5453    Y=              0.0001    Z=             -0.0002  Tot=              5.5453
 Quadrupole moment (field-independent basis, Debye-Ang):
   XX=            -85.7518   YY=            -35.3923   ZZ=            -35.3936
   XY=              0.0010   XZ=              0.0034   YZ=             -0.0000

  Exact polarizability:  79.272   0.004  41.406  -0.007  -0.003  41.397
 Approx polarizability:  98.119   0.006  50.204  -0.004  -0.006  50.185

 ******    2 imaginary frequencies (negative Signs) ******

                      1                      2                      3
                      A                      A                      A
 Frequencies --    -69.9703               -68.3789               153.7175
 Red. masses --      3.6632                 3.6826                12.3878
 Frc consts  --      0.0106                 0.0101                 0.1725
 IR Inten    --     21.5616                21.5916                20.0018

                      4                      5                      6
                      A                      A                      A
 Frequencies --    372.8864               374.4773               932.0514
 Red. masses --      3.4474                 3.4487                 4.8202
 Frc consts  --      0.2824                 0.2849                 2.4671
 IR Inten    --      1.2093                 1.1746                12.5750

                      7                      8                      9
                      A                      A                      A
 Frequencies --   1017.6520              1018.3394              1349.6221
 Red. masses --      1.5082                 1.5055                 1.2147
 Frc consts  --      0.9202                 0.9198                 1.3036
 IR Inten    --      1.5423                 1.5706                44.1484

                     10                     11                     12
                      A                      A                      A
 Frequencies --   1440.8944              1441.9160              2352.3278
 Red. masses --      1.0400                 1.0403                12.4946
 Frc consts  --      1.2722                 1.2743                40.7349
 IR Inten    --     12.2374                12.3278                55.1679

                     13                     14                     15
                      A                      A                      A
 Frequencies --   3092.6336              3172.4831              3181.0993
 Red. masses --      1.0339                 1.1029                 1.1031
 Frc consts  --      5.8261                 6.5398                 6.5766
 IR Inten    --      2.5001                 0.3348                 0.3516

 - Thermochemistry -
 -------------------
 Temperature   298.150 Kelvin.  Pressure   1.00000 Atm.
 Atom     1 has atomic number  6 and mass  12.00000

 Molecular mass:    75.99540 amu.
 Principal axes and moments of inertia in atomic units:
                           1         2         3
     Eigenvalues --    11.268851487.495081487.50332
           X            1.00000  -0.00002   0.00008
           Y            0.00000   0.98280   0.18466
           Z           -0.00008  -0.18466   0.98280
 This molecule is an asymmetric top.
 Rotational symmetry number  1.
 Rotational temperatures (Kelvin)      7.68614     0.05823     0.05823
 Rotational constants (GHZ):         160.15316     1.21328     1.21327
    2 imaginary frequencies ignored.
 Zero-point vibrational energy     119029.0 (Joules/Mol)
                                   28.44862 (Kcal/Mol)
 Warning -- explicit consideration of   3 degrees of freedom as
           vibrations may cause significant error
 Vibrational temperatures:    221.17   536.50   538.79  1341.01  1464.17
          (Kelvin)           1465.16  1941.81  2073.13  2074.60  3384.48
                             4449.61  4564.50  4576.89

 Zero-point correction=                           0.045336 (Hartree/Particle)
 Thermal correction to Energy=                    0.049615
 Thermal correction to Enthalpy=                  0.050559
 Thermal correction to Gibbs Free Energy=         0.017904
 Sum of electronic and zero-point Energies=           -593.013657
 Sum of electronic and thermal Energies=              -593.009378
 Sum of electronic and thermal Enthalpies=            -593.008433
 Sum of electronic and thermal Free Energies=         -593.041089

                     E (Thermal)             CV                S
                      KCal/Mol        Cal/Mol-Kelvin    Cal/Mol-Kelvin
 Total                   31.134             12.398             68.730
 Electronic               0.000              0.000              0.000
 Translational            0.889              2.981             38.900
 Rotational               0.889              2.981             24.726
 Vibrational             29.357              6.437              5.105
 Vibration     1          0.619              1.899              2.626
 Vibration     2          0.744              1.528              1.068
 Vibration     3          0.746              1.524              1.061

 Normal termination of Gaussian 16 at Sun Oct 13 09:48:27 2024.
