 Gaussian 16, Revision B.01,
 Gaussian 16:  ES64L-G16RevB.01 20-Dec-2017

 ---------------------------------------------------------------------
 #p b3lyp 6-31++g(d,p) scf=verytight NoSymm freq=noraman int=ultrafine
 ---------------------------------------------------------------------

 ------------------------
 RxCoord=-5.89287 DE=2.54
 ------------------------
 Symbolic Z-matrix:
 Charge = -1 Multiplicity = 1

                          Input orientation:
 ---------------------------------------------------------------------
 Center     Atomic      Atomic             Coordinates (Angstroms)
 Number     Number       Type             X           Y           Z
 ---------------------------------------------------------------------
      1          6           0        0.719388   -0.000025    0.000275
      2         17           0       -2.356501    0.000007    0.000102
      3          1           0        0.333792    0.002873   -1.021835
      4          1           0        0.338451    0.884040    0.512677
      5          1           0        0.342578   -0.885029    0.508135
      6          6           0        2.172091   -0.000176   -0.000225
      7          7           0        3.333812    0.000018   -0.000225
 ---------------------------------------------------------------------

 SCF Done:  E(RB3LYP) =  -593.058860082     A.U. after   13 cycles

 Alpha  occ. eigenvalues -- -101.25504 -14.22316 -10.11984 -10.08856  -9.16876
 Alpha  occ. eigenvalues --   -6.92663  -6.92663  -6.92632  -0.79369  -0.63841
 Alpha  occ. eigenvalues --   -0.50838  -0.37544  -0.32200  -0.32097  -0.25446
 Alpha  occ. eigenvalues --   -0.21223  -0.21205  -0.05404  -0.05404  -0.05379
 Alpha virt. eigenvalues --    0.10345   0.13945   0.13962   0.14463   0.15116
 Alpha virt. eigenvalues --    0.15125   0.20063   0.20791   0.20796   0.21933
 Alpha virt. eigenvalues --    0.23474   0.23487   0.25621   0.26052   0.26054

 Mulliken charges:
               1
     1  C    0.022143
     2  Cl  -0.913461
     3  H    0.219396
     4  H    0.219064
     5  H    0.218887
     6  C   -0.178210
     7  N   -0.587820
 Sum of Mulliken charges =  -1.00000

 Dipole moment (field-independent basis, Debye):
    X=              5.5099    Y=              0.0006    Z=             -0.0008  Tot=              5.5099
 Quadrupole moment (field-independent basis, Debye-Ang):
   XX=            -85.5893   YY=            -35.3869   ZZ=            -35.3918
   XY=             -0.0032   XZ=              0.0085   YZ=             -0.0011

  Exact polarizability:  79.314  -0.013  41.371   0.017   0.009  41.398
 Approx polarizability:  98.174  -0.021  50.181   0.034   0.014  50.216

 ******    2 imaginary frequencies (negative Signs) ******

                      1                      2                      3
                      A                      A                      A
 Frequencies --    -71.8764               -68.3347               156.6842
 Red. masses --      3.6586                 3.7007                12.4154
 Frc consts  --      0.0111                 0.0102                 0.1796
 IR Inten    --     21.5670                21.6800                19.9700

                      4                      5                      6
                      A                      A                      A
 Frequencies --    371.4351               375.2435               932.4858
 Red. masses --      3.4409                 3.4408                 4.8281
 Frc consts  --      0.2797                 0.2855                 2.4735
 IR Inten    --      1.2283                 1.1291                12.7048

                      7                      8                      9
                      A                      A                      A
 Frequencies --   1017.4112              1017.8463              1348.6697
 Red. masses --      1.5091                 1.5051                 1.2139
 Frc consts  --      0.9203                 0.9187                 1.3009
 IR Inten    --      1.5329                 1.6077                44.5392

                     10                     11                     12
                      A                      A                      A
 Frequencies --   1438.8700              1442.8708              2352.9137
 Red. masses --      1.0398                 1.0405                12.4936
 Frc consts  --      1.2684                 1.2763                40.7519
 IR Inten    --     12.0766                12.4196                55.5500

                     13                     14                     15
                      A                      A                      A
 Frequencies --   3091.3141              3166.2184              3193.7384
 Red. masses --      1.0359                 1.1017                 1.1018
 Frc consts  --      5.8327                 6.5074                 6.6216
 IR Inten    --      2.5153                 0.3405                 0.4081

 - Thermochemistry -
 -------------------
 Temperature   298.150 Kelvin.  Pressure   1.00000 Atm.
 Atom     1 has atomic number  6 and mass  12.00000

 Molecular mass:    75.99540 amu.
 Principal axes and moments of inertia in atomic units:
                           1         2         3
     Eigenvalues --    11.264891480.450841480.45521
           X            1.00000   0.00004  -0.00001
           Y           -0.00002   0.58746   0.80926
           Z           -0.00004   0.80926  -0.58746
 This molecule is an asymmetric top.
 Rotational symmetry number  1.
 Rotational temperatures (Kelvin)      7.68884     0.05851     0.05850
 Rotational constants (GHZ):         160.20934     1.21905     1.21904
    2 imaginary frequencies ignored.
 Zero-point vibrational energy     119062.5 (Joules/Mol)
                                   28.45663 (Kcal/Mol)
 Warning -- explicit consideration of   3 degrees of freedom as
           vibrations may cause significant error
 Vibrational temperatures:    225.43   534.41   539.89  1341.64  1463.83
          (Kelvin)           1464.45  1940.43  2070.21  2075.97  3385.32
                             4447.71  4555.48  4595.08

 Zero-point correction=                           0.045349 (Hartree/Particle)
 Thermal correction to Energy=                    0.049624
 Thermal correction to Enthalpy=                  0.050568
 Thermal correction to Gibbs Free Energy=         0.017933
 Sum of electronic and zero-point Energies=           -593.013512
 Sum of electronic and thermal Energies=              -593.009236
 Sum of electronic and thermal Enthalpies=            -593.008292
 Sum of electronic and thermal Free Energies=         -593.040928

                     E (Thermal)             CV                S
                      KCal/Mol        Cal/Mol-Kelvin    Cal/Mol-Kelvin
 Total                   31.139             12.397             68.687
 Electronic               0.000              0.000              0.000
 Translational            0.889              2.981             38.900
 Rotational               0.889              2.981             24.716
 Vibrational             29.362              6.436              5.071
 Vibration     1          0.620              1.895              2.589
 Vibration     2          0.743              1.531              1.074
 Vibration     3          0.746              1.523              1.058

 Normal termination of Gaussian 16 at Sun Oct 13 09:48:32 2024.
