 Gaussian 16, Revision B.01,
 Gaussian 16:  ES64L-G16RevB.01 20-Dec-2017

 ---------------------------------------------------------------------
 #p b3lyp 6-31++g(d,p) scf=verytight NoSymm freq=noraman int=ultrafine
 ---------------------------------------------------------------------

 ------------------------
 RxCoord=-5.79353 DE=2.67
 ------------------------
 Symbolic Z-matrix:
 Charge = -1 Multiplicity = 1

                          Input orientation:
 ---------------------------------------------------------------------
 Center     Atomic      Atomic             Coordinates (Angstroms)
 Number     Number       Type             X           Y           Z
 ---------------------------------------------------------------------
      1          6           0        0.714065   -0.000025    0.000311
      2         17           0       -2.350079    0.000003    0.000068
      3          1           0        0.333588    0.002056   -1.019772
      4          1           0        0.333191    0.883039    0.513633
      5          1           0        0.330050   -0.886426    0.509578
      6          6           0        2.166631    0.000110   -0.000573
      7          7           0        3.328311    0.000016   -0.000191
 ---------------------------------------------------------------------

 SCF Done:  E(RB3LYP) =  -593.058745716     A.U. after   13 cycles

 Alpha  occ. eigenvalues -- -101.25506 -14.22281 -10.11947 -10.08805  -9.16880
 Alpha  occ. eigenvalues --   -6.92667  -6.92667  -6.92635  -0.79338  -0.63797
 Alpha  occ. eigenvalues --   -0.50853  -0.37511  -0.32130  -0.32069  -0.25416
 Alpha  occ. eigenvalues --   -0.21185  -0.21174  -0.05416  -0.05416  -0.05382
 Alpha virt. eigenvalues --    0.10363   0.13969   0.13983   0.14473   0.15144
 Alpha virt. eigenvalues --    0.15150   0.20073   0.20806   0.20811   0.21932
 Alpha virt. eigenvalues --    0.23500   0.23511   0.25642   0.26058   0.26060

 Mulliken charges:
               1
     1  C    0.024778
     2  Cl  -0.912545
     3  H    0.219247
     4  H    0.219142
     5  H    0.219315
     6  C   -0.181538
     7  N   -0.588398
 Sum of Mulliken charges =  -1.00000

 Dipole moment (field-independent basis, Debye):
    X=              5.4729    Y=             -0.0006    Z=              0.0009  Tot=              5.4729
 Quadrupole moment (field-independent basis, Debye-Ang):
   XX=            -85.4254   YY=            -35.3874   ZZ=            -35.3868
   XY=              0.0023   XZ=              0.0004   YZ=              0.0010

  Exact polarizability:  79.383   0.009  41.378  -0.014  -0.006  41.360
 Approx polarizability:  98.271   0.015  50.221  -0.016  -0.009  50.192

 ******    2 imaginary frequencies (negative Signs) ******

                      1                      2                      3
                      A                      A                      A
 Frequencies --    -71.3437               -68.5635               159.7724
 Red. masses --      3.6784                 3.7121                12.4449
 Frc consts  --      0.0110                 0.0103                 0.1872
 IR Inten    --     21.6422                21.7119                19.9424

                      4                      5                      6
                      A                      A                      A
 Frequencies --    372.5337               375.4419               932.8764
 Red. masses --      3.4335                 3.4353                 4.8341
 Frc consts  --      0.2808                 0.2853                 2.4787
 IR Inten    --      1.1835                 1.1166                12.8266

                      7                      8                      9
                      A                      A                      A
 Frequencies --   1017.3502              1018.0963              1348.4764
 Red. masses --      1.5079                 1.5037                 1.2132
 Frc consts  --      0.9195                 0.9183                 1.2998
 IR Inten    --      1.5640                 1.6217                45.2008

                     10                     11                     12
                      A                      A                      A
 Frequencies --   1439.3647              1441.9843              2353.1605
 Red. masses --      1.0399                 1.0404                12.4925
 Frc consts  --      1.2694                 1.2746                40.7571
 IR Inten    --     12.0937                12.3198                56.0107

                     13                     14                     15
                      A                      A                      A
 Frequencies --   3092.2962              3169.4331              3187.3227
 Red. masses --      1.0350                 1.1019                 1.1028
 Frc consts  --      5.8311                 6.5214                 6.6006
 IR Inten    --      2.6232                 0.3527                 0.3804

 - Thermochemistry -
 -------------------
 Temperature   298.150 Kelvin.  Pressure   1.00000 Atm.
 Atom     1 has atomic number  6 and mass  12.00000

 Molecular mass:    75.99540 amu.
 Principal axes and moments of inertia in atomic units:
                           1         2         3
     Eigenvalues --    11.261081473.454511473.46221
           X            1.00000  -0.00002   0.00007
           Y            0.00001   0.99349   0.11393
           Z           -0.00007  -0.11393   0.99349
 This molecule is an asymmetric top.
 Rotational symmetry number  1.
 Rotational temperatures (Kelvin)      7.69144     0.05878     0.05878
 Rotational constants (GHZ):         160.26354     1.22484     1.22483
    2 imaginary frequencies ignored.
 Zero-point vibrational energy     119076.9 (Joules/Mol)
                                   28.46007 (Kcal/Mol)
 Warning -- explicit consideration of   3 degrees of freedom as
           vibrations may cause significant error
 Vibrational temperatures:    229.88   535.99   540.18  1342.20  1463.74
          (Kelvin)           1464.81  1940.16  2070.92  2074.69  3385.67
                             4449.12  4560.11  4585.85

 Zero-point correction=                           0.045354 (Hartree/Particle)
 Thermal correction to Energy=                    0.049623
 Thermal correction to Enthalpy=                  0.050567
 Thermal correction to Gibbs Free Energy=         0.017956
 Sum of electronic and zero-point Energies=           -593.013392
 Sum of electronic and thermal Energies=              -593.009123
 Sum of electronic and thermal Enthalpies=            -593.008179
 Sum of electronic and thermal Free Energies=         -593.040790

                     E (Thermal)             CV                S
                      KCal/Mol        Cal/Mol-Kelvin    Cal/Mol-Kelvin
 Total                   31.139             12.391             68.635
 Electronic               0.000              0.000              0.000
 Translational            0.889              2.981             38.900
 Rotational               0.889              2.981             24.706
 Vibrational             29.361              6.429              5.029
 Vibration     1          0.622              1.892              2.552
 Vibration     2          0.744              1.529              1.069
 Vibration     3          0.746              1.522              1.057

 Normal termination of Gaussian 16 at Sun Oct 13 09:48:30 2024.
