 Gaussian 16, Revision B.01,
 Gaussian 16:  ES64L-G16RevB.01 20-Dec-2017

 ---------------------------------------------------------------------
 #p b3lyp 6-31++g(d,p) scf=verytight NoSymm freq=noraman int=ultrafine
 ---------------------------------------------------------------------

 ------------------------
 RxCoord=-5.69361 DE=2.81
 ------------------------
 Symbolic Z-matrix:
 Charge = -1 Multiplicity = 1

                          Input orientation:
 ---------------------------------------------------------------------
 Center     Atomic      Atomic             Coordinates (Angstroms)
 Number     Number       Type             X           Y           Z
 ---------------------------------------------------------------------
      1          6           0        0.708792    0.000005    0.000309
      2         17           0       -2.343548    0.000000    0.000029
      3          1           0        0.325033    0.002526   -1.020764
      4          1           0        0.327576    0.883629    0.513041
      5          1           0        0.328692   -0.885741    0.508799
      6          6           0        2.160823   -0.000027   -0.000343
      7          7           0        3.322615   -0.000011   -0.000121
 ---------------------------------------------------------------------

 SCF Done:  E(RB3LYP) =  -593.058599605     A.U. after   13 cycles

 Alpha  occ. eigenvalues -- -101.25505 -14.22245 -10.11908 -10.08754  -9.16882
 Alpha  occ. eigenvalues --   -6.92668  -6.92668  -6.92635  -0.79300  -0.63766
 Alpha  occ. eigenvalues --   -0.50866  -0.37470  -0.32080  -0.32047  -0.25384
 Alpha  occ. eigenvalues --   -0.21143  -0.21137  -0.05426  -0.05426  -0.05382
 Alpha virt. eigenvalues --    0.10379   0.13995   0.13997   0.14483   0.15173
 Alpha virt. eigenvalues --    0.15177   0.20083   0.20824   0.20825   0.21931
 Alpha virt. eigenvalues --    0.23525   0.23528   0.25662   0.26064   0.26066

 Mulliken charges:
               1
     1  C    0.027819
     2  Cl  -0.911697
     3  H    0.219493
     4  H    0.219219
     5  H    0.219158
     6  C   -0.184942
     7  N   -0.589050
 Sum of Mulliken charges =  -1.00000

 Dipole moment (field-independent basis, Debye):
    X=              5.4367    Y=              0.0002    Z=              0.0001  Tot=              5.4367
 Quadrupole moment (field-independent basis, Debye-Ang):
   XX=            -85.2660   YY=            -35.3819   ZZ=            -35.3851
   XY=             -0.0008   XZ=              0.0038   YZ=             -0.0003

  Exact polarizability:  79.444  -0.003  41.354   0.004   0.002  41.359
 Approx polarizability:  98.370  -0.006  50.217   0.013   0.003  50.221

 ******    2 imaginary frequencies (negative Signs) ******

                      1                      2                      3
                      A                      A                      A
 Frequencies --    -70.3094               -69.7744               162.8421
 Red. masses --      3.6962                 3.7026                12.4752
 Frc consts  --      0.0108                 0.0106                 0.1949
 IR Inten    --     21.7036                21.7271                19.9083

                      4                      5                      6
                      A                      A                      A
 Frequencies --    374.5656               375.2174               934.1740
 Red. masses --      3.4370                 3.4365                 4.8325
 Frc consts  --      0.2841                 0.2851                 2.4847
 IR Inten    --      1.1564                 1.1369                12.9533

                      7                      8                      9
                      A                      A                      A
 Frequencies --   1017.8396              1018.2822              1348.1349
 Red. masses --      1.5048                 1.5045                 1.2131
 Frc consts  --      0.9185                 0.9191                 1.2990
 IR Inten    --      1.6158                 1.5964                45.6635

                     10                     11                     12
                      A                      A                      A
 Frequencies --   1439.8635              1440.9393              2352.5717
 Red. masses --      1.0401                 1.0402                12.4909
 Frc consts  --      1.2705                 1.2725                40.7313
 IR Inten    --     12.1140                12.1988                56.6056

                     13                     14                     15
                      A                      A                      A
 Frequencies --   3093.4490              3174.0300              3180.2292
 Red. masses --      1.0337                 1.1030                 1.1031
 Frc consts  --      5.8281                 6.5470                 6.5732
 IR Inten    --      2.7302                 0.3433                 0.3586

 - Thermochemistry -
 -------------------
 Temperature   298.150 Kelvin.  Pressure   1.00000 Atm.
 Atom     1 has atomic number  6 and mass  12.00000

 Molecular mass:    75.99540 amu.
 Principal axes and moments of inertia in atomic units:
                           1         2         3
     Eigenvalues --    11.262711466.299031466.30374
           X            1.00000   0.00001   0.00003
           Y           -0.00000   0.99732  -0.07311
           Z           -0.00003   0.07311   0.99732
 This molecule is an asymmetric top.
 Rotational symmetry number  1.
 Rotational temperatures (Kelvin)      7.69033     0.05907     0.05907
 Rotational constants (GHZ):         160.24038     1.23081     1.23081
    2 imaginary frequencies ignored.
 Zero-point vibrational energy     119101.0 (Joules/Mol)
                                   28.46583 (Kcal/Mol)
 Warning -- explicit consideration of   3 degrees of freedom as
           vibrations may cause significant error
 Vibrational temperatures:    234.29   538.92   539.85  1344.07  1464.44
          (Kelvin)           1465.08  1939.67  2071.64  2073.19  3384.83
                             4450.78  4566.72  4575.64

 Zero-point correction=                           0.045363 (Hartree/Particle)
 Thermal correction to Energy=                    0.049624
 Thermal correction to Enthalpy=                  0.050568
 Thermal correction to Gibbs Free Energy=         0.017983
 Sum of electronic and zero-point Energies=           -593.013236
 Sum of electronic and thermal Energies=              -593.008975
 Sum of electronic and thermal Enthalpies=            -593.008031
 Sum of electronic and thermal Free Energies=         -593.040616

                     E (Thermal)             CV                S
                      KCal/Mol        Cal/Mol-Kelvin    Cal/Mol-Kelvin
 Total                   31.140             12.381             68.581
 Electronic               0.000              0.000              0.000
 Translational            0.889              2.981             38.900
 Rotational               0.889              2.981             24.697
 Vibrational             29.362              6.420              4.985
 Vibration     1          0.623              1.888              2.517
 Vibration     2          0.746              1.524              1.061
 Vibration     3          0.746              1.523              1.058

 Normal termination of Gaussian 16 at Sun Oct 13 09:48:41 2024.
