 Gaussian 16, Revision B.01,
 Gaussian 16:  ES64L-G16RevB.01 20-Dec-2017

 ---------------------------------------------------------------------
 #p b3lyp 6-31++g(d,p) scf=verytight NoSymm freq=noraman int=ultrafine
 ---------------------------------------------------------------------

 ------------------------
 RxCoord=-5.59366 DE=2.96
 ------------------------
 Symbolic Z-matrix:
 Charge = -1 Multiplicity = 1

                          Input orientation:
 ---------------------------------------------------------------------
 Center     Atomic      Atomic             Coordinates (Angstroms)
 Number     Number       Type             X           Y           Z
 ---------------------------------------------------------------------
      1          6           0        0.703087   -0.000003    0.000357
      2         17           0       -2.336981    0.000001   -0.000010
      3          1           0        0.320820    0.002355   -1.020659
      4          1           0        0.322323    0.883659    0.513386
      5          1           0        0.322011   -0.886203    0.509215
      6          6           0        2.155388    0.000021   -0.000371
      7          7           0        3.316925   -0.000002   -0.000103
 ---------------------------------------------------------------------

 SCF Done:  E(RB3LYP) =  -593.058441029     A.U. after   13 cycles

 Alpha  occ. eigenvalues -- -101.25503 -14.22203 -10.11863 -10.08710  -9.16882
 Alpha  occ. eigenvalues --   -6.92669  -6.92669  -6.92635  -0.79273  -0.63717
 Alpha  occ. eigenvalues --   -0.50879  -0.37414  -0.32024  -0.32018  -0.25350
 Alpha  occ. eigenvalues --   -0.21111  -0.21110  -0.05435  -0.05435  -0.05381
 Alpha virt. eigenvalues --    0.10396   0.14020   0.14023   0.14493   0.15208
 Alpha virt. eigenvalues --    0.15209   0.20093   0.20839   0.20840   0.21929
 Alpha virt. eigenvalues --    0.23548   0.23550   0.25682   0.26071   0.26073

 Mulliken charges:
               1
     1  C    0.030228
     2  Cl  -0.910811
     3  H    0.219428
     4  H    0.219214
     5  H    0.219230
     6  C   -0.187378
     7  N   -0.589911
 Sum of Mulliken charges =  -1.00000

 Dipole moment (field-independent basis, Debye):
    X=              5.4012    Y=             -0.0001    Z=              0.0006  Tot=              5.4012
 Quadrupole moment (field-independent basis, Debye-Ang):
   XX=            -85.1041   YY=            -35.3784   ZZ=            -35.3804
   XY=              0.0003   XZ=              0.0018   YZ=              0.0001

  Exact polarizability:  79.488   0.001  41.345  -0.002  -0.001  41.342
 Approx polarizability:  98.410   0.001  50.237   0.004  -0.001  50.229

 ******    2 imaginary frequencies (negative Signs) ******

                      1                      2                      3
                      A                      A                      A
 Frequencies --    -70.8354               -70.1498               166.0287
 Red. masses --      3.7241                 3.7326                12.5092
 Frc consts  --      0.0110                 0.0108                 0.2032
 IR Inten    --     21.7977                21.8012                19.8667

                      4                      5                      6
                      A                      A                      A
 Frequencies --    374.4720               375.0803               933.6502
 Red. masses --      3.4229                 3.4243                 4.8523
 Frc consts  --      0.2828                 0.2838                 2.4921
 IR Inten    --      1.1005                 1.0914                13.1298

                      7                      8                      9
                      A                      A                      A
 Frequencies --   1018.4234              1018.9753              1347.6122
 Red. masses --      1.5031                 1.5016                 1.2116
 Frc consts  --      0.9185                 0.9186                 1.2964
 IR Inten    --      1.6053                 1.6073                45.8938

                     10                     11                     12
                      A                      A                      A
 Frequencies --   1440.2158              1440.4206              2354.0959
 Red. masses --      1.0401                 1.0402                12.4909
 Frc consts  --      1.2712                 1.2716                40.7843
 IR Inten    --     12.0785                12.0989                56.8032

                     13                     14                     15
                      A                      A                      A
 Frequencies --   3092.5099              3175.0655              3177.1947
 Red. masses --      1.0335                 1.1031                 1.1031
 Frc consts  --      5.8236                 6.5522                 6.5610
 IR Inten    --      2.7545                 0.3512                 0.3566

 - Thermochemistry -
 -------------------
 Temperature   298.150 Kelvin.  Pressure   1.00000 Atm.
 Atom     1 has atomic number  6 and mass  12.00000

 Molecular mass:    75.99540 amu.
 Principal axes and moments of inertia in atomic units:
                           1         2         3
     Eigenvalues --    11.267881459.185431459.19119
           X            1.00000  -0.00000   0.00002
           Y            0.00000   0.99996   0.00839
           Z           -0.00002  -0.00839   0.99996
 This molecule is an asymmetric top.
 Rotational symmetry number  1.
 Rotational temperatures (Kelvin)      7.68680     0.05936     0.05936
 Rotational constants (GHZ):         160.16695     1.23681     1.23681
    2 imaginary frequencies ignored.
 Zero-point vibrational energy     119110.6 (Joules/Mol)
                                   28.46813 (Kcal/Mol)
 Warning -- explicit consideration of   3 degrees of freedom as
           vibrations may cause significant error
 Vibrational temperatures:    238.88   538.78   539.66  1343.31  1465.28
          (Kelvin)           1466.08  1938.91  2072.15  2072.44  3387.02
                             4449.43  4568.21  4571.27

 Zero-point correction=                           0.045367 (Hartree/Particle)
 Thermal correction to Energy=                    0.049623
 Thermal correction to Enthalpy=                  0.050567
 Thermal correction to Gibbs Free Energy=         0.018003
 Sum of electronic and zero-point Energies=           -593.013074
 Sum of electronic and thermal Energies=              -593.008818
 Sum of electronic and thermal Enthalpies=            -593.007874
 Sum of electronic and thermal Free Energies=         -593.040438

                     E (Thermal)             CV                S
                      KCal/Mol        Cal/Mol-Kelvin    Cal/Mol-Kelvin
 Total                   31.139             12.378             68.536
 Electronic               0.000              0.000              0.000
 Translational            0.889              2.981             38.900
 Rotational               0.889              2.981             24.687
 Vibrational             29.361              6.416              4.949
 Vibration     1          0.624              1.884              2.480
 Vibration     2          0.746              1.524              1.061
 Vibration     3          0.746              1.523              1.059

 Normal termination of Gaussian 16 at Sun Oct 13 09:48:40 2024.
