 Gaussian 16, Revision B.01,
 Gaussian 16:  ES64L-G16RevB.01 20-Dec-2017

 ---------------------------------------------------------------------
 #p b3lyp 6-31++g(d,p) scf=verytight NoSymm freq=noraman int=ultrafine
 ---------------------------------------------------------------------

 ------------------------
 RxCoord=-5.49426 DE=3.12
 ------------------------
 Symbolic Z-matrix:
 Charge = -1 Multiplicity = 1

                          Input orientation:
 ---------------------------------------------------------------------
 Center     Atomic      Atomic             Coordinates (Angstroms)
 Number     Number       Type             X           Y           Z
 ---------------------------------------------------------------------
      1          6           0        0.699145    0.000005    0.000374
      2         17           0       -2.330499   -0.000001   -0.000040
      3          1           0        0.314759    0.002410   -1.021393
      4          1           0        0.316553    0.884283    0.513612
      5          1           0        0.316679   -0.886699    0.509444
      6          6           0        2.149110    0.000005   -0.000316
      7          7           0        3.310732   -0.000007   -0.000070
 ---------------------------------------------------------------------

 SCF Done:  E(RB3LYP) =  -593.058275031     A.U. after   13 cycles

 Alpha  occ. eigenvalues -- -101.25503 -14.22162 -10.11819 -10.08669  -9.16885
 Alpha  occ. eigenvalues --   -6.92672  -6.92672  -6.92636  -0.79238  -0.63695
 Alpha  occ. eigenvalues --   -0.50894  -0.37397  -0.31975  -0.31962  -0.25320
 Alpha  occ. eigenvalues --   -0.21056  -0.21054  -0.05447  -0.05447  -0.05382
 Alpha virt. eigenvalues --    0.10410   0.14028   0.14030   0.14502   0.15240
 Alpha virt. eigenvalues --    0.15241   0.20098   0.20855   0.20856   0.21930
 Alpha virt. eigenvalues --    0.23567   0.23568   0.25697   0.26075   0.26077

 Mulliken charges:
               1
     1  C    0.033173
     2  Cl  -0.909931
     3  H    0.219545
     4  H    0.219315
     5  H    0.219302
     6  C   -0.190587
     7  N   -0.590817
 Sum of Mulliken charges =  -1.00000

 Dipole moment (field-independent basis, Debye):
    X=              5.3640    Y=              0.0000    Z=              0.0005  Tot=              5.3640
 Quadrupole moment (field-independent basis, Debye-Ang):
   XX=            -84.9446   YY=            -35.3755   ZZ=            -35.3780
   XY=             -0.0000   XZ=              0.0017   YZ=             -0.0000

  Exact polarizability:  79.611  -0.000  41.345   0.000   0.000  41.345
 Approx polarizability:  98.622  -0.001  50.273   0.007   0.000  50.269

 ******    2 imaginary frequencies (negative Signs) ******

                      1                      2                      3
                      A                      A                      A
 Frequencies --    -70.9992               -70.5989               169.0967
 Red. masses --      3.7510                 3.7558                12.5370
 Frc consts  --      0.0111                 0.0110                 0.2112
 IR Inten    --     21.8515                21.8456                19.8455

                      4                      5                      6
                      A                      A                      A
 Frequencies --    377.7239               377.9884               939.3215
 Red. masses --      3.4414                 3.4426                 4.7936
 Frc consts  --      0.2893                 0.2898                 2.4920
 IR Inten    --      1.0755                 1.0747                13.1849

                      7                      8                      9
                      A                      A                      A
 Frequencies --   1020.9782              1021.4966              1350.8288
 Red. masses --      1.4957                 1.4946                 1.2148
 Frc consts  --      0.9186                 0.9189                 1.3060
 IR Inten    --      1.6453                 1.6382                47.3848

                     10                     11                     12
                      A                      A                      A
 Frequencies --   1441.1162              1441.3437              2354.6536
 Red. masses --      1.0402                 1.0402                12.4899
 Frc consts  --      1.2728                 1.2732                40.8005
 IR Inten    --     12.0494                12.0605                58.4965

                     13                     14                     15
                      A                      A                      A
 Frequencies --   3081.9939              3163.9194              3164.3674
 Red. masses --      1.0337                 1.1030                 1.1030
 Frc consts  --      5.7850                 6.5052                 6.5074
 IR Inten    --      2.9093                 0.3386                 0.3397

 - Thermochemistry -
 -------------------
 Temperature   298.150 Kelvin.  Pressure   1.00000 Atm.
 Atom     1 has atomic number  6 and mass  12.00000

 Molecular mass:    75.99540 amu.
 Principal axes and moments of inertia in atomic units:
                           1         2         3
     Eigenvalues --    11.282081451.927631451.93346
           X            1.00000   0.00000   0.00001
           Y           -0.00000   0.99999   0.00412
           Z           -0.00001  -0.00412   0.99999
 This molecule is an asymmetric top.
 Rotational symmetry number  1.
 Rotational temperatures (Kelvin)      7.67712     0.05965     0.05965
 Rotational constants (GHZ):         159.96529     1.24300     1.24299
    2 imaginary frequencies ignored.
 Zero-point vibrational energy     119057.3 (Joules/Mol)
                                   28.45538 (Kcal/Mol)
 Warning -- explicit consideration of   3 degrees of freedom as
           vibrations may cause significant error
 Vibrational temperatures:    243.29   543.46   543.84  1351.47  1468.96
          (Kelvin)           1469.71  1943.54  2073.44  2073.77  3387.82
                             4434.30  4552.17  4552.82

 Zero-point correction=                           0.045347 (Hartree/Particle)
 Thermal correction to Energy=                    0.049589
 Thermal correction to Enthalpy=                  0.050533
 Thermal correction to Gibbs Free Energy=         0.018004
 Sum of electronic and zero-point Energies=           -593.012928
 Sum of electronic and thermal Energies=              -593.008686
 Sum of electronic and thermal Enthalpies=            -593.007742
 Sum of electronic and thermal Free Energies=         -593.040271

                     E (Thermal)             CV                S
                      KCal/Mol        Cal/Mol-Kelvin    Cal/Mol-Kelvin
 Total                   31.118             12.346             68.463
 Electronic               0.000              0.000              0.000
 Translational            0.889              2.981             38.900
 Rotational               0.889              2.981             24.679
 Vibrational             29.340              6.385              4.885
 Vibration     1          0.625              1.881              2.445
 Vibration     2          0.748              1.518              1.048
 Vibration     3          0.748              1.517              1.047

 Normal termination of Gaussian 16 at Sun Oct 13 09:48:43 2024.
