 Gaussian 16, Revision B.01,
 Gaussian 16:  ES64L-G16RevB.01 20-Dec-2017

 ---------------------------------------------------------------------
 #p b3lyp 6-31++g(d,p) scf=verytight NoSymm freq=noraman int=ultrafine
 ---------------------------------------------------------------------

 ------------------------
 RxCoord=-5.39748 DE=3.28
 ------------------------
 Symbolic Z-matrix:
 Charge = -1 Multiplicity = 1

                          Input orientation:
 ---------------------------------------------------------------------
 Center     Atomic      Atomic             Coordinates (Angstroms)
 Number     Number       Type             X           Y           Z
 ---------------------------------------------------------------------
      1          6           0        0.691455   -0.000001    0.000386
      2         17           0       -2.324416    0.000000   -0.000062
      3          1           0        0.316354    0.002410   -1.019569
      4          1           0        0.317992    0.882724    0.512687
      5          1           0        0.318248   -0.885063    0.508510
      6          6           0        2.144423   -0.000001   -0.000286
      7          7           0        3.305815   -0.000003   -0.000049
 ---------------------------------------------------------------------

 SCF Done:  E(RB3LYP) =  -593.057969503     A.U. after   13 cycles

 Alpha  occ. eigenvalues -- -101.25485 -14.22122 -10.11768 -10.08552  -9.16870
 Alpha  occ. eigenvalues --   -6.92657  -6.92657  -6.92620  -0.79208  -0.63727
 Alpha  occ. eigenvalues --   -0.50888  -0.37266  -0.32078  -0.32064  -0.25275
 Alpha  occ. eigenvalues --   -0.21067  -0.21065  -0.05440  -0.05440  -0.05365
 Alpha virt. eigenvalues --    0.10425   0.14084   0.14087   0.14517   0.15279
 Alpha virt. eigenvalues --    0.15281   0.20116   0.20869   0.20870   0.21926
 Alpha virt. eigenvalues --    0.23581   0.23583   0.25736   0.26089   0.26091

 Mulliken charges:
               1
     1  C    0.035544
     2  Cl  -0.909753
     3  H    0.219206
     4  H    0.218984
     5  H    0.218972
     6  C   -0.190872
     7  N   -0.592081
 Sum of Mulliken charges =  -1.00000

 Dipole moment (field-independent basis, Debye):
    X=              5.3444    Y=              0.0000    Z=              0.0006  Tot=              5.3444
 Quadrupole moment (field-independent basis, Debye-Ang):
   XX=            -84.8159   YY=            -35.3589   ZZ=            -35.3614
   XY=             -0.0002   XZ=              0.0013   YZ=             -0.0000

  Exact polarizability:  79.330  -0.001  41.275   0.000   0.001  41.275
 Approx polarizability:  98.162  -0.001  50.175   0.007   0.001  50.170

 ******    2 imaginary frequencies (negative Signs) ******

                      1                      2                      3
                      A                      A                      A
 Frequencies --    -78.9598               -78.5372               171.6177
 Red. masses --      3.6437                 3.6492                12.5786
 Frc consts  --      0.0134                 0.0133                 0.2183
 IR Inten    --     21.8401                21.8368                19.7186

                      4                      5                      6
                      A                      A                      A
 Frequencies --    365.9186               366.2390               932.2727
 Red. masses --      3.4004                 3.4012                 4.9349
 Frc consts  --      0.2683                 0.2688                 2.5270
 IR Inten    --      1.2120                 1.2088                13.4788

                      7                      8                      9
                      A                      A                      A
 Frequencies --   1012.6491              1013.1706              1336.7936
 Red. masses --      1.5206                 1.5194                 1.2069
 Frc consts  --      0.9187                 0.9189                 1.2707
 IR Inten    --      1.5781                 1.5713                43.6614

                     10                     11                     12
                      A                      A                      A
 Frequencies --   1435.4991              1435.7538              2354.8424
 Red. masses --      1.0400                 1.0400                12.4865
 Frc consts  --      1.2627                 1.2631                40.7956
 IR Inten    --     11.9360                11.9491                56.2354

                     13                     14                     15
                      A                      A                      A
 Frequencies --   3123.3684              3211.4118              3212.3296
 Red. masses --      1.0328                 1.1036                 1.1037
 Frc consts  --      5.9362                 6.7061                 6.7102
 IR Inten    --      2.5513                 0.4511                 0.4532

 - Thermochemistry -
 -------------------
 Temperature   298.150 Kelvin.  Pressure   1.00000 Atm.
 Atom     1 has atomic number  6 and mass  12.00000

 Molecular mass:    75.99540 amu.
 Principal axes and moments of inertia in atomic units:
                           1         2         3
     Eigenvalues --    11.241501445.434431445.44016
           X            1.00000   0.00000  -0.00000
           Y           -0.00000   0.99967  -0.02550
           Z            0.00000   0.02550   0.99967
 This molecule is an asymmetric top.
 Rotational symmetry number  1.
 Rotational temperatures (Kelvin)      7.70484     0.05992     0.05992
 Rotational constants (GHZ):         160.54279     1.24858     1.24858
    2 imaginary frequencies ignored.
 Zero-point vibrational energy     119458.3 (Joules/Mol)
                                   28.55122 (Kcal/Mol)
 Warning -- explicit consideration of   3 degrees of freedom as
           vibrations may cause significant error
 Vibrational temperatures:    246.92   526.48   526.94  1341.33  1456.98
          (Kelvin)           1457.73  1923.35  2065.36  2065.73  3388.09
                             4493.83  4620.51  4621.83

 Zero-point correction=                           0.045499 (Hartree/Particle)
 Thermal correction to Energy=                    0.049767
 Thermal correction to Enthalpy=                  0.050711
 Thermal correction to Gibbs Free Energy=         0.018149
 Sum of electronic and zero-point Energies=           -593.012470
 Sum of electronic and thermal Energies=              -593.008203
 Sum of electronic and thermal Enthalpies=            -593.007259
 Sum of electronic and thermal Free Energies=         -593.039820

                     E (Thermal)             CV                S
                      KCal/Mol        Cal/Mol-Kelvin    Cal/Mol-Kelvin
 Total                   31.229             12.429             68.531
 Electronic               0.000              0.000              0.000
 Translational            0.889              2.981             38.900
 Rotational               0.889              2.981             24.666
 Vibrational             29.452              6.467              4.965
 Vibration     1          0.626              1.877              2.418
 Vibration     2          0.739              1.542              1.097
 Vibration     3          0.739              1.542              1.096

 Normal termination of Gaussian 16 at Sun Oct 13 09:48:49 2024.
