 Gaussian 16, Revision B.01,
 Gaussian 16:  ES64L-G16RevB.01 20-Dec-2017

 ---------------------------------------------------------------------
 #p b3lyp 6-31++g(d,p) scf=verytight NoSymm freq=noraman int=ultrafine
 ---------------------------------------------------------------------

 ------------------------
 RxCoord=-5.29766 DE=3.42
 ------------------------
 Symbolic Z-matrix:
 Charge = -1 Multiplicity = 1

                          Input orientation:
 ---------------------------------------------------------------------
 Center     Atomic      Atomic             Coordinates (Angstroms)
 Number     Number       Type             X           Y           Z
 ---------------------------------------------------------------------
      1          6           0        0.688096    0.000000    0.000389
      2         17           0       -2.318109    0.000000   -0.000077
      3          1           0        0.303865    0.002376   -1.020467
      4          1           0        0.305349    0.883442    0.513204
      5          1           0        0.305287   -0.885883    0.509052
      6          6           0        2.138869    0.000009   -0.000283
      7          7           0        3.300446   -0.000003   -0.000027
 ---------------------------------------------------------------------

 SCF Done:  E(RB3LYP) =  -593.057957638     A.U. after   13 cycles

 Alpha  occ. eigenvalues -- -101.25503 -14.22095 -10.11748 -10.08556  -9.16890
 Alpha  occ. eigenvalues --   -6.92677  -6.92677  -6.92639  -0.79173  -0.63609
 Alpha  occ. eigenvalues --   -0.50924  -0.37323  -0.31892  -0.31883  -0.25260
 Alpha  occ. eigenvalues --   -0.20998  -0.20996  -0.05469  -0.05469  -0.05384
 Alpha virt. eigenvalues --    0.10446   0.14078   0.14081   0.14522   0.15291
 Alpha virt. eigenvalues --    0.15291   0.20121   0.20885   0.20886   0.21925
 Alpha virt. eigenvalues --    0.23616   0.23619   0.25741   0.26088   0.26090

 Mulliken charges:
               1
     1  C    0.037690
     2  Cl  -0.908123
     3  H    0.219670
     4  H    0.219477
     5  H    0.219479
     6  C   -0.196298
     7  N   -0.591895
 Sum of Mulliken charges =  -1.00000

 Dipole moment (field-independent basis, Debye):
    X=              5.2933    Y=             -0.0000    Z=              0.0007  Tot=              5.2933
 Quadrupole moment (field-independent basis, Debye-Ang):
   XX=            -84.6365   YY=            -35.3700   ZZ=            -35.3720
   XY=              0.0001   XZ=              0.0007   YZ=              0.0000

  Exact polarizability:  79.721   0.000  41.297  -0.000  -0.000  41.296
 Approx polarizability:  98.758   0.000  50.262   0.006  -0.000  50.258

 ******    2 imaginary frequencies (negative Signs) ******

                      1                      2                      3
                      A                      A                      A
 Frequencies --    -70.9824               -70.5275               175.4311
 Red. masses --      3.7651                 3.7702                12.6091
 Frc consts  --      0.0112                 0.0110                 0.2286
 IR Inten    --     21.9492                21.9454                19.7723

                      4                      5                      6
                      A                      A                      A
 Frequencies --    377.4080               377.7081               937.5485
 Red. masses --      3.4185                 3.4195                 4.8457
 Frc consts  --      0.2869                 0.2874                 2.5095
 IR Inten    --      1.0374                 1.0353                13.4827

                      7                      8                      9
                      A                      A                      A
 Frequencies --   1019.4133              1019.8219              1347.7980
 Red. masses --      1.4977                 1.4967                 1.2109
 Frc consts  --      0.9170                 0.9172                 1.2960
 IR Inten    --      1.6860                 1.6815                48.1568

                     10                     11                     12
                      A                      A                      A
 Frequencies --   1439.7489              1439.7976              2354.3157
 Red. masses --      1.0401                 1.0401                12.4868
 Frc consts  --      1.2703                 1.2704                40.7786
 IR Inten    --     11.9752                11.9787                58.7861

                     13                     14                     15
                      A                      A                      A
 Frequencies --   3089.0729              3171.4223              3171.9804
 Red. masses --      1.0337                 1.1030                 1.1030
 Frc consts  --      5.8115                 6.5366                 6.5387
 IR Inten    --      3.0794                 0.3520                 0.3537

 - Thermochemistry -
 -------------------
 Temperature   298.150 Kelvin.  Pressure   1.00000 Atm.
 Atom     1 has atomic number  6 and mass  12.00000

 Molecular mass:    75.99540 amu.
 Principal axes and moments of inertia in atomic units:
                           1         2         3
     Eigenvalues --    11.261771438.711491438.71652
           X            1.00000  -0.00000  -0.00001
           Y            0.00000   1.00000  -0.00057
           Z            0.00001   0.00057   1.00000
 This molecule is an asymmetric top.
 Rotational symmetry number  1.
 Rotational temperatures (Kelvin)      7.69097     0.06020     0.06020
 Rotational constants (GHZ):         160.25373     1.25441     1.25441
    2 imaginary frequencies ignored.
 Zero-point vibrational energy     119156.8 (Joules/Mol)
                                   28.47917 (Kcal/Mol)
 Warning -- explicit consideration of   3 degrees of freedom as
           vibrations may cause significant error
 Vibrational temperatures:    252.41   543.01   543.44  1348.92  1466.71
          (Kelvin)           1467.30  1939.18  2071.48  2071.55  3387.34
                             4444.49  4562.97  4563.77

 Zero-point correction=                           0.045384 (Hartree/Particle)
 Thermal correction to Energy=                    0.049618
 Thermal correction to Enthalpy=                  0.050562
 Thermal correction to Gibbs Free Energy=         0.018073
 Sum of electronic and zero-point Energies=           -593.012573
 Sum of electronic and thermal Energies=              -593.008340
 Sum of electronic and thermal Enthalpies=            -593.007395
 Sum of electronic and thermal Free Energies=         -593.039885

                     E (Thermal)             CV                S
                      KCal/Mol        Cal/Mol-Kelvin    Cal/Mol-Kelvin
 Total                   31.136             12.348             68.379
 Electronic               0.000              0.000              0.000
 Translational            0.889              2.981             38.900
 Rotational               0.889              2.981             24.659
 Vibrational             29.358              6.386              4.820
 Vibration     1          0.627              1.873              2.376
 Vibration     2          0.748              1.518              1.050
 Vibration     3          0.748              1.518              1.048

 Normal termination of Gaussian 16 at Sun Oct 13 09:48:53 2024.
