 Gaussian 16, Revision B.01,
 Gaussian 16:  ES64L-G16RevB.01 20-Dec-2017

 ---------------------------------------------------------------------
 #p b3lyp 6-31++g(d,p) scf=verytight NoSymm freq=noraman int=ultrafine
 ---------------------------------------------------------------------

 ------------------------
 RxCoord=-5.19768 DE=3.60
 ------------------------
 Symbolic Z-matrix:
 Charge = -1 Multiplicity = 1

                          Input orientation:
 ---------------------------------------------------------------------
 Center     Atomic      Atomic             Coordinates (Angstroms)
 Number     Number       Type             X           Y           Z
 ---------------------------------------------------------------------
      1          6           0        0.682165    0.000002    0.000367
      2         17           0       -2.311549    0.000000   -0.000083
      3          1           0        0.300018    0.002388   -1.020254
      4          1           0        0.301458    0.883207    0.513057
      5          1           0        0.301524   -0.885603    0.508908
      6          6           0        2.133273    0.000005   -0.000268
      7          7           0        3.294769   -0.000004    0.000000
 ---------------------------------------------------------------------

 SCF Done:  E(RB3LYP) =  -593.057732420     A.U. after   13 cycles

 Alpha  occ. eigenvalues -- -101.25497 -14.22054 -10.11702 -10.08490  -9.16887
 Alpha  occ. eigenvalues --   -6.92674  -6.92674  -6.92635  -0.79139  -0.63588
 Alpha  occ. eigenvalues --   -0.50933  -0.37258  -0.31884  -0.31875  -0.25223
 Alpha  occ. eigenvalues --   -0.20970  -0.20969  -0.05475  -0.05475  -0.05378
 Alpha virt. eigenvalues --    0.10462   0.14107   0.14110   0.14533   0.15325
 Alpha virt. eigenvalues --    0.15326   0.20132   0.20901   0.20902   0.21923
 Alpha virt. eigenvalues --    0.23637   0.23639   0.25764   0.26096   0.26098

 Mulliken charges:
               1
     1  C    0.040179
     2  Cl  -0.907373
     3  H    0.219600
     4  H    0.219420
     5  H    0.219415
     6  C   -0.198406
     7  N   -0.592835
 Sum of Mulliken charges =  -1.00000

 Dipole moment (field-independent basis, Debye):
    X=              5.2604    Y=              0.0000    Z=              0.0007  Tot=              5.2604
 Quadrupole moment (field-independent basis, Debye-Ang):
   XX=            -84.4837   YY=            -35.3630   ZZ=            -35.3648
   XY=             -0.0000   XZ=              0.0004   YZ=              0.0000

  Exact polarizability:  79.711  -0.000  41.270   0.000   0.000  41.270
 Approx polarizability:  98.730  -0.000  50.250   0.007   0.000  50.247

 ******    2 imaginary frequencies (negative Signs) ******

                      1                      2                      3
                      A                      A                      A
 Frequencies --    -72.9103               -72.5238               178.6133
 Red. masses --      3.7571                 3.7612                12.6492
 Frc consts  --      0.0118                 0.0117                 0.2378
 IR Inten    --     22.0036                21.9981                19.7078

                      4                      5                      6
                      A                      A                      A
 Frequencies --    375.5047               375.7202               936.8562
 Red. masses --      3.4064                 3.4072                 4.8800
 Frc consts  --      0.2830                 0.2834                 2.5236
 IR Inten    --      1.0415                 1.0409                13.6658

                      7                      8                      9
                      A                      A                      A
 Frequencies --   1018.1713              1018.5194              1344.6357
 Red. masses --      1.5012                 1.5003                 1.2087
 Frc consts  --      0.9169                 0.9170                 1.2876
 IR Inten    --      1.6821                 1.6770                47.6643

                     10                     11                     12
                      A                      A                      A
 Frequencies --   1438.4342              1438.4568              2354.6599
 Red. masses --      1.0401                 1.0401                12.4852
 Frc consts  --      1.2680                 1.2680                40.7852
 IR Inten    --     11.9036                11.9076                58.7312

                     13                     14                     15
                      A                      A                      A
 Frequencies --   3097.1697              3181.0935              3181.2781
 Red. masses --      1.0334                 1.1032                 1.1032
 Frc consts  --      5.8407                 6.5775                 6.5780
 IR Inten    --      3.0437                 0.3793                 0.3803

 - Thermochemistry -
 -------------------
 Temperature   298.150 Kelvin.  Pressure   1.00000 Atm.
 Atom     1 has atomic number  6 and mass  12.00000

 Molecular mass:    75.99540 amu.
 Principal axes and moments of inertia in atomic units:
                           1         2         3
     Eigenvalues --    11.255861431.646211431.65059
           X            1.00000   0.00000  -0.00001
           Y           -0.00000   0.99997  -0.00715
           Z            0.00001   0.00715   0.99997
 This molecule is an asymmetric top.
 Rotational symmetry number  1.
 Rotational temperatures (Kelvin)      7.69501     0.06050     0.06050
 Rotational constants (GHZ):         160.33794     1.26061     1.26060
    2 imaginary frequencies ignored.
 Zero-point vibrational energy     119262.4 (Joules/Mol)
                                   28.50439 (Kcal/Mol)
 Warning -- explicit consideration of   3 degrees of freedom as
           vibrations may cause significant error
 Vibrational temperatures:    256.98   540.27   540.58  1347.93  1464.92
          (Kelvin)           1465.42  1934.63  2069.59  2069.62  3387.83
                             4456.14  4576.88  4577.15

 Zero-point correction=                           0.045425 (Hartree/Particle)
 Thermal correction to Energy=                    0.049658
 Thermal correction to Enthalpy=                  0.050602
 Thermal correction to Gibbs Free Energy=         0.018125
 Sum of electronic and zero-point Energies=           -593.012308
 Sum of electronic and thermal Energies=              -593.008075
 Sum of electronic and thermal Enthalpies=            -593.007131
 Sum of electronic and thermal Free Energies=         -593.039607

                     E (Thermal)             CV                S
                      KCal/Mol        Cal/Mol-Kelvin    Cal/Mol-Kelvin
 Total                   31.161             12.358             68.352
 Electronic               0.000              0.000              0.000
 Translational            0.889              2.981             38.900
 Rotational               0.889              2.981             24.648
 Vibrational             29.383              6.396              4.804
 Vibration     1          0.629              1.869              2.343
 Vibration     2          0.746              1.522              1.057
 Vibration     3          0.747              1.522              1.056

 Normal termination of Gaussian 16 at Sun Oct 13 09:48:54 2024.
