 Gaussian 16, Revision B.01,
 Gaussian 16:  ES64L-G16RevB.01 20-Dec-2017

 ---------------------------------------------------------------------
 #p b3lyp 6-31++g(d,p) scf=verytight NoSymm freq=noraman int=ultrafine
 ---------------------------------------------------------------------

 ------------------------
 RxCoord=-5.09771 DE=3.78
 ------------------------
 Symbolic Z-matrix:
 Charge = -1 Multiplicity = 1

                          Input orientation:
 ---------------------------------------------------------------------
 Center     Atomic      Atomic             Coordinates (Angstroms)
 Number     Number       Type             X           Y           Z
 ---------------------------------------------------------------------
      1          6           0        0.676595    0.000002    0.000329
      2         17           0       -2.304977    0.000000   -0.000081
      3          1           0        0.293990    0.002382   -1.020270
      4          1           0        0.295328    0.883135    0.513043
      5          1           0        0.295346   -0.885537    0.508903
      6          6           0        2.127706    0.000005   -0.000263
      7          7           0        3.289221   -0.000004    0.000025
 ---------------------------------------------------------------------

 SCF Done:  E(RB3LYP) =  -593.057534175     A.U. after   13 cycles

 Alpha  occ. eigenvalues -- -101.25496 -14.22018 -10.11664 -10.08441  -9.16889
 Alpha  occ. eigenvalues --   -6.92677  -6.92677  -6.92637  -0.79103  -0.63539
 Alpha  occ. eigenvalues --   -0.50950  -0.37219  -0.31831  -0.31824  -0.25191
 Alpha  occ. eigenvalues --   -0.20933  -0.20932  -0.05488  -0.05488  -0.05378
 Alpha virt. eigenvalues --    0.10479   0.14129   0.14131   0.14543   0.15352
 Alpha virt. eigenvalues --    0.15353   0.20143   0.20916   0.20917   0.21921
 Alpha virt. eigenvalues --    0.23662   0.23664   0.25784   0.26102   0.26104

 Mulliken charges:
               1
     1  C    0.042554
     2  Cl  -0.906368
     3  H    0.219644
     4  H    0.219485
     5  H    0.219483
     6  C   -0.201359
     7  N   -0.593440
 Sum of Mulliken charges =  -1.00000

 Dipole moment (field-independent basis, Debye):
    X=              5.2223    Y=              0.0000    Z=              0.0006  Tot=              5.2223
 Quadrupole moment (field-independent basis, Debye-Ang):
   XX=            -84.3242   YY=            -35.3606   ZZ=            -35.3619
   XY=              0.0000   XZ=              0.0001   YZ=              0.0000

  Exact polarizability:  79.802  -0.000  41.252   0.000  -0.000  41.253
 Approx polarizability:  98.858  -0.000  50.260   0.007  -0.000  50.257

 ******    2 imaginary frequencies (negative Signs) ******

                      1                      2                      3
                      A                      A                      A
 Frequencies --    -72.1295               -71.7567               182.0661
 Red. masses --      3.7782                 3.7818                12.6905
 Frc consts  --      0.0116                 0.0115                 0.2478
 IR Inten    --     22.0659                22.0601                19.6702

                      4                      5                      6
                      A                      A                      A
 Frequencies --    376.8044               376.9858               936.9193
 Red. masses --      3.4015                 3.4022                 4.8945
 Frc consts  --      0.2845                 0.2849                 2.5314
 IR Inten    --      1.0072                 1.0070                13.8276

                      7                      8                      9
                      A                      A                      A
 Frequencies --   1018.7044              1018.9738              1344.4987
 Red. masses --      1.4988                 1.4981                 1.2074
 Frc consts  --      0.9164                 0.9165                 1.2860
 IR Inten    --      1.7037                 1.7003                48.3432

                     10                     11                     12
                      A                      A                      A
 Frequencies --   1438.2799              1438.3482              2354.3820
 Red. masses --      1.0401                 1.0401                12.4838
 Frc consts  --      1.2677                 1.2679                40.7709
 IR Inten    --     11.8581                11.8550                59.1835

                     13                     14                     15
                      A                      A                      A
 Frequencies --   3095.8187              3179.4198              3179.7552
 Red. masses --      1.0335                 1.1032                 1.1032
 Frc consts  --      5.8358                 6.5704                 6.5716
 IR Inten    --      3.1500                 0.3773                 0.3795

 - Thermochemistry -
 -------------------
 Temperature   298.150 Kelvin.  Pressure   1.00000 Atm.
 Atom     1 has atomic number  6 and mass  12.00000

 Molecular mass:    75.99540 amu.
 Principal axes and moments of inertia in atomic units:
                           1         2         3
     Eigenvalues --    11.255031424.650771424.65423
           X            1.00000   0.00000  -0.00001
           Y           -0.00000   0.99999  -0.00365
           Z            0.00001   0.00365   0.99999
 This molecule is an asymmetric top.
 Rotational symmetry number  1.
 Rotational temperatures (Kelvin)      7.69558     0.06080     0.06080
 Rotational constants (GHZ):         160.34980     1.26680     1.26679
    2 imaginary frequencies ignored.
 Zero-point vibrational energy     119273.4 (Joules/Mol)
                                   28.50703 (Kcal/Mol)
 Warning -- explicit consideration of   3 degrees of freedom as
           vibrations may cause significant error
 Vibrational temperatures:    261.95   542.14   542.40  1348.02  1465.69
          (Kelvin)           1466.08  1934.43  2069.36  2069.46  3387.43
                             4454.19  4574.48  4574.96

 Zero-point correction=                           0.045429 (Hartree/Particle)
 Thermal correction to Energy=                    0.049653
 Thermal correction to Enthalpy=                  0.050598
 Thermal correction to Gibbs Free Energy=         0.018148
 Sum of electronic and zero-point Energies=           -593.012105
 Sum of electronic and thermal Energies=              -593.007881
 Sum of electronic and thermal Enthalpies=            -593.006937
 Sum of electronic and thermal Free Energies=         -593.039386

                     E (Thermal)             CV                S
                      KCal/Mol        Cal/Mol-Kelvin    Cal/Mol-Kelvin
 Total                   31.158             12.347             68.296
 Electronic               0.000              0.000              0.000
 Translational            0.889              2.981             38.900
 Rotational               0.889              2.981             24.639
 Vibrational             29.381              6.385              4.758
 Vibration     1          0.630              1.864              2.307
 Vibration     2          0.747              1.520              1.052
 Vibration     3          0.748              1.519              1.051

 Normal termination of Gaussian 16 at Sun Oct 13 09:48:54 2024.
