 Gaussian 16, Revision B.01,
 Gaussian 16:  ES64L-G16RevB.01 20-Dec-2017

 ---------------------------------------------------------------------
 #p b3lyp 6-31++g(d,p) scf=verytight NoSymm freq=noraman int=ultrafine
 ---------------------------------------------------------------------

 ------------------------
 RxCoord=-4.99779 DE=3.97
 ------------------------
 Symbolic Z-matrix:
 Charge = -1 Multiplicity = 1

                          Input orientation:
 ---------------------------------------------------------------------
 Center     Atomic      Atomic             Coordinates (Angstroms)
 Number     Number       Type             X           Y           Z
 ---------------------------------------------------------------------
      1          6           0        0.670278    0.000003    0.000268
      2         17           0       -2.298421    0.000000   -0.000069
      3          1           0        0.287851    0.002384   -1.020153
      4          1           0        0.289098    0.882915    0.512926
      5          1           0        0.289128   -0.885305    0.508792
      6          6           0        2.122449    0.000003   -0.000257
      7          7           0        3.284106   -0.000005    0.000050
 ---------------------------------------------------------------------

 SCF Done:  E(RB3LYP) =  -593.057324455     A.U. after   13 cycles

 Alpha  occ. eigenvalues -- -101.25495 -14.21986 -10.11631 -10.08391  -9.16892
 Alpha  occ. eigenvalues --   -6.92680  -6.92680  -6.92638  -0.79060  -0.63479
 Alpha  occ. eigenvalues --   -0.50967  -0.37169  -0.31779  -0.31774  -0.25159
 Alpha  occ. eigenvalues --   -0.20901  -0.20901  -0.05500  -0.05500  -0.05377
 Alpha virt. eigenvalues --    0.10497   0.14155   0.14157   0.14553   0.15375
 Alpha virt. eigenvalues --    0.15376   0.20156   0.20932   0.20933   0.21918
 Alpha virt. eigenvalues --    0.23689   0.23690   0.25804   0.26109   0.26110

 Mulliken charges:
               1
     1  C    0.044971
     2  Cl  -0.905306
     3  H    0.219669
     4  H    0.219533
     5  H    0.219530
     6  C   -0.204643
     7  N   -0.593754
 Sum of Mulliken charges =  -1.00000

 Dipole moment (field-independent basis, Debye):
    X=              5.1838    Y=              0.0000    Z=              0.0005  Tot=              5.1838
 Quadrupole moment (field-independent basis, Debye-Ang):
   XX=            -84.1685   YY=            -35.3587   ZZ=            -35.3595
   XY=              0.0000   XZ=             -0.0000   YZ=              0.0000

  Exact polarizability:  79.890  -0.000  41.230   0.001   0.000  41.231
 Approx polarizability:  98.971  -0.000  50.261   0.007   0.000  50.260

 ******    2 imaginary frequencies (negative Signs) ******

                      1                      2                      3
                      A                      A                      A
 Frequencies --    -70.0019               -69.6469               185.6396
 Red. masses --      3.7929                 3.7958                12.7374
 Frc consts  --      0.0110                 0.0108                 0.2586
 IR Inten    --     22.1217                22.1152                19.6281

                      4                      5                      6
                      A                      A                      A
 Frequencies --    378.0058               378.1353               934.3480
 Red. masses --      3.3917                 3.3921                 4.9434
 Frc consts  --      0.2855                 0.2858                 2.5427
 IR Inten    --      0.9768                 0.9774                14.0504

                      7                      8                      9
                      A                      A                      A
 Frequencies --   1018.5631              1018.7606              1342.9705
 Red. masses --      1.4983                 1.4977                 1.2042
 Frc consts  --      0.9158                 0.9159                 1.2796
 IR Inten    --      1.7148                 1.7131                48.5894

                     10                     11                     12
                      A                      A                      A
 Frequencies --   1437.7417              1437.8601              2352.6513
 Red. masses --      1.0401                 1.0402                12.4816
 Frc consts  --      1.2668                 1.2670                40.7040
 IR Inten    --     11.8004                11.7951                59.0549

                     13                     14                     15
                      A                      A                      A
 Frequencies --   3097.7919              3181.6915              3182.0017
 Red. masses --      1.0334                 1.1032                 1.1032
 Frc consts  --      5.8428                 6.5801                 6.5813
 IR Inten    --      3.2233                 0.3820                 0.3848

 - Thermochemistry -
 -------------------
 Temperature   298.150 Kelvin.  Pressure   1.00000 Atm.
 Atom     1 has atomic number  6 and mass  12.00000

 Molecular mass:    75.99540 amu.
 Principal axes and moments of inertia in atomic units:
                           1         2         3
     Eigenvalues --    11.250451417.837901417.84018
           X            1.00000   0.00000  -0.00001
           Y           -0.00000   1.00000  -0.00302
           Z            0.00001   0.00302   1.00000
 This molecule is an asymmetric top.
 Rotational symmetry number  1.
 Rotational temperatures (Kelvin)      7.69871     0.06109     0.06109
 Rotational constants (GHZ):         160.41503     1.27288     1.27288
    2 imaginary frequencies ignored.
 Zero-point vibrational energy     119304.5 (Joules/Mol)
                                   28.51447 (Kcal/Mol)
 Warning -- explicit consideration of   3 degrees of freedom as
           vibrations may cause significant error
 Vibrational temperatures:    267.09   543.87   544.05  1344.32  1465.49
          (Kelvin)           1465.77  1932.24  2068.59  2068.76  3384.94
                             4457.03  4577.74  4578.19

 Zero-point correction=                           0.045441 (Hartree/Particle)
 Thermal correction to Energy=                    0.049658
 Thermal correction to Enthalpy=                  0.050602
 Thermal correction to Gibbs Free Energy=         0.018178
 Sum of electronic and zero-point Energies=           -593.011884
 Sum of electronic and thermal Energies=              -593.007667
 Sum of electronic and thermal Enthalpies=            -593.006723
 Sum of electronic and thermal Free Energies=         -593.039147

                     E (Thermal)             CV                S
                      KCal/Mol        Cal/Mol-Kelvin    Cal/Mol-Kelvin
 Total                   31.161             12.342             68.242
 Electronic               0.000              0.000              0.000
 Translational            0.889              2.981             38.900
 Rotational               0.889              2.981             24.629
 Vibrational             29.383              6.380              4.714
 Vibration     1          0.632              1.859              2.271
 Vibration     2          0.748              1.517              1.047
 Vibration     3          0.748              1.517              1.047

 Normal termination of Gaussian 16 at Sun Oct 13 09:48:56 2024.
