 Gaussian 16, Revision B.01,
 Gaussian 16:  ES64L-G16RevB.01 20-Dec-2017

 ---------------------------------------------------------------------
 #p b3lyp 6-31++g(d,p) scf=verytight NoSymm freq=noraman int=ultrafine
 ---------------------------------------------------------------------

 ------------------------
 RxCoord=-4.89808 DE=4.17
 ------------------------
 Symbolic Z-matrix:
 Charge = -1 Multiplicity = 1

                          Input orientation:
 ---------------------------------------------------------------------
 Center     Atomic      Atomic             Coordinates (Angstroms)
 Number     Number       Type             X           Y           Z
 ---------------------------------------------------------------------
      1          6           0        0.662430    0.000004    0.000185
      2         17           0       -2.292033    0.000000   -0.000047
      3          1           0        0.280063    0.002383   -1.020075
      4          1           0        0.281193    0.882701    0.512805
      5          1           0        0.281211   -0.885085    0.508677
      6          6           0        2.118059    0.000002   -0.000248
      7          7           0        3.280338   -0.000005    0.000070
 ---------------------------------------------------------------------

 SCF Done:  E(RB3LYP) =  -593.057123912     A.U. after   13 cycles

 Alpha  occ. eigenvalues -- -101.25498 -14.21975 -10.11621 -10.08363  -9.16898
 Alpha  occ. eigenvalues --   -6.92686  -6.92686  -6.92643  -0.78999  -0.63368
 Alpha  occ. eigenvalues --   -0.50989  -0.37105  -0.31697  -0.31695  -0.25131
 Alpha  occ. eigenvalues --   -0.20875  -0.20874  -0.05517  -0.05517  -0.05381
 Alpha virt. eigenvalues --    0.10515   0.14186   0.14187   0.14563   0.15376
 Alpha virt. eigenvalues --    0.15377   0.20174   0.20946   0.20947   0.21911
 Alpha virt. eigenvalues --    0.23721   0.23721   0.25822   0.26115   0.26116

 Mulliken charges:
               1
     1  C    0.047725
     2  Cl  -0.903940
     3  H    0.219721
     4  H    0.219611
     5  H    0.219609
     6  C   -0.209747
     7  N   -0.592978
 Sum of Mulliken charges =  -1.00000

 Dipole moment (field-independent basis, Debye):
    X=              5.1409    Y=              0.0000    Z=              0.0004  Tot=              5.1409
 Quadrupole moment (field-independent basis, Debye-Ang):
   XX=            -84.0223   YY=            -35.3619   ZZ=            -35.3620
   XY=              0.0000   XZ=             -0.0001   YZ=              0.0000

  Exact polarizability:  80.050  -0.000  41.209   0.001   0.000  41.211
 Approx polarizability:  99.176  -0.000  50.269   0.006  -0.000  50.268

 ******    2 imaginary frequencies (negative Signs) ******

                      1                      2                      3
                      A                      A                      A
 Frequencies --    -61.1920               -60.7842               189.5569
 Red. masses --      3.8117                 3.8144                12.7950
 Frc consts  --      0.0084                 0.0083                 0.2709
 IR Inten    --     22.1570                22.1504                19.6005

                      4                      5                      6
                      A                      A                      A
 Frequencies --    381.9337               382.0415               925.6548
 Red. masses --      3.3801                 3.3805                 5.0604
 Frc consts  --      0.2905                 0.2907                 2.5546
 IR Inten    --      0.9338                 0.9343                14.4391

                      7                      8                      9
                      A                      A                      A
 Frequencies --   1018.5425              1018.6883              1340.5939
 Red. masses --      1.4971                 1.4967                 1.1972
 Frc consts  --      0.9151                 0.9151                 1.2676
 IR Inten    --      1.7091                 1.7103                48.5343

                     10                     11                     12
                      A                      A                      A
 Frequencies --   1437.3803              1437.5578              2346.1604
 Red. masses --      1.0403                 1.0403                12.4777
 Frc consts  --      1.2663                 1.2667                40.4670
 IR Inten    --     11.7279                11.7210                57.8459

                     13                     14                     15
                      A                      A                      A
 Frequencies --   3099.2935              3183.5398              3183.9171
 Red. masses --      1.0333                 1.1033                 1.1033
 Frc consts  --      5.8477                 6.5883                 6.5899
 IR Inten    --      3.2953                 0.3807                 0.3844

 - Thermochemistry -
 -------------------
 Temperature   298.150 Kelvin.  Pressure   1.00000 Atm.
 Atom     1 has atomic number  6 and mass  12.00000

 Molecular mass:    75.99540 amu.
 Principal axes and moments of inertia in atomic units:
                           1         2         3
     Eigenvalues --    11.246251411.643401411.64436
           X            1.00000   0.00000  -0.00001
           Y           -0.00000   1.00000  -0.00099
           Z            0.00001   0.00099   1.00000
 This molecule is an asymmetric top.
 Rotational symmetry number  1.
 Rotational temperatures (Kelvin)      7.70159     0.06136     0.06136
 Rotational constants (GHZ):         160.47499     1.27847     1.27847
    2 imaginary frequencies ignored.
 Zero-point vibrational energy     119296.8 (Joules/Mol)
                                   28.51261 (Kcal/Mol)
 Warning -- explicit consideration of   3 degrees of freedom as
           vibrations may cause significant error
 Vibrational temperatures:    272.73   549.52   549.67  1331.81  1465.46
          (Kelvin)           1465.67  1928.82  2068.07  2068.32  3375.60
                             4459.19  4580.40  4580.95

 Zero-point correction=                           0.045438 (Hartree/Particle)
 Thermal correction to Energy=                    0.049642
 Thermal correction to Enthalpy=                  0.050586
 Thermal correction to Gibbs Free Energy=         0.018198
 Sum of electronic and zero-point Energies=           -593.011686
 Sum of electronic and thermal Energies=              -593.007482
 Sum of electronic and thermal Enthalpies=            -593.006538
 Sum of electronic and thermal Free Energies=         -593.038926

                     E (Thermal)             CV                S
                      KCal/Mol        Cal/Mol-Kelvin    Cal/Mol-Kelvin
 Total                   31.151             12.332             68.168
 Electronic               0.000              0.000              0.000
 Translational            0.889              2.981             38.900
 Rotational               0.889              2.981             24.620
 Vibrational             29.373              6.371              4.648
 Vibration     1          0.633              1.854              2.232
 Vibration     2          0.751              1.509              1.031
 Vibration     3          0.752              1.508              1.031

 Normal termination of Gaussian 16 at Sun Oct 13 09:48:56 2024.
