 Gaussian 16, Revision B.01,
 Gaussian 16:  ES64L-G16RevB.01 20-Dec-2017

 ---------------------------------------------------------------------
 #p b3lyp 6-31++g(d,p) scf=verytight NoSymm freq=noraman int=ultrafine
 ---------------------------------------------------------------------

 ------------------------
 RxCoord=-4.79861 DE=4.41
 ------------------------
 Symbolic Z-matrix:
 Charge = -1 Multiplicity = 1

                          Input orientation:
 ---------------------------------------------------------------------
 Center     Atomic      Atomic             Coordinates (Angstroms)
 Number     Number       Type             X           Y           Z
 ---------------------------------------------------------------------
      1          6           0        0.652020    0.000004    0.000095
      2         17           0       -2.286441    0.000000   -0.000020
      3          1           0        0.270155    0.002384   -1.020259
      4          1           0        0.271157    0.882700    0.512797
      5          1           0        0.271170   -0.885077    0.508674
      6          6           0        2.115780    0.000001   -0.000237
      7          7           0        3.279407   -0.000005    0.000086
 ---------------------------------------------------------------------

 SCF Done:  E(RB3LYP) =  -593.056900387     A.U. after   13 cycles

 Alpha  occ. eigenvalues -- -101.25506 -14.21996 -10.11652 -10.08381  -9.16911
 Alpha  occ. eigenvalues --   -6.92698  -6.92698  -6.92655  -0.78909  -0.63167
 Alpha  occ. eigenvalues --   -0.51016  -0.37004  -0.31571  -0.31571  -0.25108
 Alpha  occ. eigenvalues --   -0.20864  -0.20863  -0.05540  -0.05540  -0.05390
 Alpha virt. eigenvalues --    0.10533   0.14224   0.14225   0.14571   0.15341
 Alpha virt. eigenvalues --    0.15342   0.20201   0.20957   0.20957   0.21897
 Alpha virt. eigenvalues --    0.23757   0.23758   0.25834   0.26121   0.26121

 Mulliken charges:
               1
     1  C    0.050644
     2  Cl  -0.902121
     3  H    0.219768
     4  H    0.219684
     5  H    0.219683
     6  C   -0.217326
     7  N   -0.590332
 Sum of Mulliken charges =  -1.00000

 Dipole moment (field-independent basis, Debye):
    X=              5.0939    Y=              0.0000    Z=              0.0002  Tot=              5.0939
 Quadrupole moment (field-independent basis, Debye-Ang):
   XX=            -83.9072   YY=            -35.3730   ZZ=            -35.3726
   XY=              0.0000   XZ=             -0.0001   YZ=             -0.0000

  Exact polarizability:  80.317  -0.000  41.195   0.001  -0.000  41.197
 Approx polarizability:  99.502  -0.000  50.288   0.006  -0.000  50.289

 ******    2 imaginary frequencies (negative Signs) ******

                      1                      2                      3
                      A                      A                      A
 Frequencies --    -34.3973               -33.6376               193.7615
 Red. masses --      3.8418                 3.8444                12.8698
 Frc consts  --      0.0027                 0.0026                 0.2847
 IR Inten    --     22.1613                22.1550                19.5973

                      4                      5                      6
                      A                      A                      A
 Frequencies --    389.8182               389.9186               905.0052
 Red. masses --      3.3639                 3.3643                 5.3045
 Frc consts  --      0.3012                 0.3014                 2.5598
 IR Inten    --      0.8642                 0.8643                15.2876

                      7                      8                      9
                      A                      A                      A
 Frequencies --   1018.8443              1018.9638              1336.5088
 Red. masses --      1.4944                 1.4940                 1.1841
 Frc consts  --      0.9140                 0.9140                 1.2462
 IR Inten    --      1.6580                 1.6622                47.4497

                     10                     11                     12
                      A                      A                      A
 Frequencies --   1437.3960              1437.6132              2332.0580
 Red. masses --      1.0407                 1.0407                12.4708
 Frc consts  --      1.2668                 1.2672                39.9599
 IR Inten    --     11.6171                11.6085                54.4841

                     13                     14                     15
                      A                      A                      A
 Frequencies --   3100.1651              3185.2762              3185.6745
 Red. masses --      1.0329                 1.1036                 1.1036
 Frc consts  --      5.8491                 6.5970                 6.5988
 IR Inten    --      3.2925                 0.3725                 0.3770

 - Thermochemistry -
 -------------------
 Temperature   298.150 Kelvin.  Pressure   1.00000 Atm.
 Atom     1 has atomic number  6 and mass  12.00000

 Molecular mass:    75.99540 amu.
 Principal axes and moments of inertia in atomic units:
                           1         2         3
     Eigenvalues --    11.247501407.082341407.08275
           X            1.00000  -0.00000   0.00000
           Y           -0.00000  -0.01810   0.99984
           Z            0.00000   0.99984   0.01810
 This molecule is an asymmetric top.
 Rotational symmetry number  1.
 Rotational temperatures (Kelvin)      7.70073     0.06156     0.06156
 Rotational constants (GHZ):         160.45713     1.28261     1.28261
    2 imaginary frequencies ignored.
 Zero-point vibrational energy     119213.9 (Joules/Mol)
                                   28.49280 (Kcal/Mol)
 Warning -- explicit consideration of   3 degrees of freedom as
           vibrations may cause significant error
 Vibrational temperatures:    278.78   560.86   561.01  1302.10  1465.89
          (Kelvin)           1466.06  1922.94  2068.09  2068.40  3355.31
                             4460.45  4582.90  4583.48

 Zero-point correction=                           0.045406 (Hartree/Particle)
 Thermal correction to Energy=                    0.049592
 Thermal correction to Enthalpy=                  0.050536
 Thermal correction to Gibbs Free Energy=         0.018194
 Sum of electronic and zero-point Energies=           -593.011494
 Sum of electronic and thermal Energies=              -593.007308
 Sum of electronic and thermal Enthalpies=            -593.006364
 Sum of electronic and thermal Free Energies=         -593.038707

                     E (Thermal)             CV                S
                      KCal/Mol        Cal/Mol-Kelvin    Cal/Mol-Kelvin
 Total                   31.119             12.322             68.071
 Electronic               0.000              0.000              0.000
 Translational            0.889              2.981             38.900
 Rotational               0.889              2.981             24.613
 Vibrational             29.342              6.360              4.558
 Vibration     1          0.635              1.849              2.192
 Vibration     2          0.758              1.492              1.001
 Vibration     3          0.758              1.492              1.000

 Normal termination of Gaussian 16 at Sun Oct 13 09:49:06 2024.
