 Gaussian 16, Revision B.01,
 Gaussian 16:  ES64L-G16RevB.01 20-Dec-2017

 ---------------------------------------------------------------------
 #p b3lyp 6-31++g(d,p) scf=verytight NoSymm freq=noraman int=ultrafine
 ---------------------------------------------------------------------

 ------------------------
 RxCoord=-4.69889 DE=4.75
 ------------------------
 Symbolic Z-matrix:
 Charge = -1 Multiplicity = 1

                          Input orientation:
 ---------------------------------------------------------------------
 Center     Atomic      Atomic             Coordinates (Angstroms)
 Number     Number       Type             X           Y           Z
 ---------------------------------------------------------------------
      1          6           0        0.639937    0.000004    0.000017
      2         17           0       -2.282218    0.000000    0.000004
      3          1           0        0.259432    0.002386   -1.020818
      4          1           0        0.260311    0.883045    0.512981
      5          1           0        0.260315   -0.885420    0.508859
      6          6           0        2.115964    0.000001   -0.000226
      7          7           0        3.281390   -0.000005    0.000096
 ---------------------------------------------------------------------

 SCF Done:  E(RB3LYP) =  -593.056546981     A.U. after   13 cycles

 Alpha  occ. eigenvalues -- -101.25520 -14.22043 -10.11711 -10.08447  -9.16928
 Alpha  occ. eigenvalues --   -6.92715  -6.92715  -6.92672  -0.78802  -0.62899
 Alpha  occ. eigenvalues --   -0.51046  -0.36867  -0.31422  -0.31420  -0.25088
 Alpha  occ. eigenvalues --   -0.20871  -0.20869  -0.05566  -0.05566  -0.05405
 Alpha virt. eigenvalues --    0.10548   0.14267   0.14267   0.14576   0.15278
 Alpha virt. eigenvalues --    0.15280   0.20233   0.20962   0.20963   0.21876
 Alpha virt. eigenvalues --    0.23794   0.23796   0.25836   0.26125   0.26125

 Mulliken charges:
               1
     1  C    0.052811
     2  Cl  -0.900001
     3  H    0.219770
     4  H    0.219709
     5  H    0.219708
     6  C   -0.225737
     7  N   -0.586260
 Sum of Mulliken charges =  -1.00000

 Dipole moment (field-independent basis, Debye):
    X=              5.0468    Y=              0.0000    Z=              0.0000  Tot=              5.0468
 Quadrupole moment (field-independent basis, Debye-Ang):
   XX=            -83.8381   YY=            -35.3899   ZZ=            -35.3889
   XY=              0.0000   XZ=             -0.0000   YZ=             -0.0000

  Exact polarizability:  80.666  -0.000  41.188   0.001  -0.000  41.191
 Approx polarizability:  99.902  -0.000  50.316   0.006  -0.000  50.318

                      1                      2                      3
                      A                      A                      A
 Frequencies --     47.9788                48.5477               197.7807
 Red. masses --      3.8829                 3.8855                12.9572
 Frc consts  --      0.0053                 0.0054                 0.2986
 IR Inten    --     22.1383                22.1326                19.6161

                      4                      5                      6
                      A                      A                      A
 Frequencies --    399.7971               399.9076               873.6769
 Red. masses --      3.3468                 3.3473                 5.6460
 Frc consts  --      0.3152                 0.3154                 2.5392
 IR Inten    --      0.7756                 0.7752                16.8924

                      7                      8                      9
                      A                      A                      A
 Frequencies --   1019.4319              1019.5501              1331.1654
 Red. masses --      1.4897                 1.4893                 1.1684
 Frc consts  --      0.9121                 0.9121                 1.2199
 IR Inten    --      1.5606                 1.5674                45.0491

                     10                     11                     12
                      A                      A                      A
 Frequencies --   1437.7808              1438.0195              2312.9791
 Red. masses --      1.0413                 1.0413                12.4613
 Frc consts  --      1.2682                 1.2687                39.2787
 IR Inten    --     11.4667                11.4572                49.3412

                     13                     14                     15
                      A                      A                      A
 Frequencies --   3100.4299              3187.0221              3187.4509
 Red. masses --      1.0324                 1.1040                 1.1040
 Frc consts  --      5.8470                 6.6067                 6.6086
 IR Inten    --      3.1661                 0.3611                 0.3661

 - Thermochemistry -
 -------------------
 Temperature   298.150 Kelvin.  Pressure   1.00000 Atm.
 Atom     1 has atomic number  6 and mass  12.00000

 Molecular mass:    75.99540 amu.
 Principal axes and moments of inertia in atomic units:
                           1         2         3
     Eigenvalues --    11.257341404.630461404.63196
           X            1.00000   0.00000   0.00000
           Y           -0.00000  -0.01040   0.99995
           Z           -0.00000   0.99995   0.01040
 This molecule is an asymmetric top.
 Rotational symmetry number  1.
 Rotational temperatures (Kelvin)      7.69400     0.06166     0.06166
 Rotational constants (GHZ):         160.31687     1.28485     1.28485
 Zero-point vibrational energy     119635.6 (Joules/Mol)
                                   28.59361 (Kcal/Mol)
 Warning -- explicit consideration of   5 degrees of freedom as
           vibrations may cause significant error
 Vibrational temperatures:     69.03    69.85   284.56   575.22   575.38
          (Kelvin)           1257.03  1466.74  1466.91  1915.25  2068.65
                             2068.99  3327.86  4460.83  4585.41  4586.03

 Zero-point correction=                           0.045567 (Hartree/Particle)
 Thermal correction to Energy=                    0.051410
 Thermal correction to Enthalpy=                  0.052354
 Thermal correction to Gibbs Free Energy=         0.015414
 Sum of electronic and zero-point Energies=           -593.010980
 Sum of electronic and thermal Energies=              -593.005137
 Sum of electronic and thermal Enthalpies=            -593.004193
 Sum of electronic and thermal Free Energies=         -593.041133

                     E (Thermal)             CV                S
                      KCal/Mol        Cal/Mol-Kelvin    Cal/Mol-Kelvin
 Total                   32.260             16.275             77.748
 Electronic               0.000              0.000              0.000
 Translational            0.889              2.981             38.900
 Rotational               0.889              2.981             24.611
 Vibrational             30.483             10.313             14.238
 Vibration     1          0.595              1.978              4.899
 Vibration     2          0.595              1.978              4.876
 Vibration     3          0.637              1.843              2.154
 Vibration     4          0.766              1.471              0.963
 Vibration     5          0.766              1.470              0.963

 Normal termination of Gaussian 16 at Sun Oct 13 09:49:06 2024.
