 Gaussian 16, Revision B.01,
 Gaussian 16:  ES64L-G16RevB.01 20-Dec-2017

 ---------------------------------------------------------------------
 #p b3lyp 6-31++g(d,p) scf=verytight NoSymm freq=noraman int=ultrafine
 ---------------------------------------------------------------------

 ------------------------
 RxCoord=-4.59898 DE=5.23
 ------------------------
 Symbolic Z-matrix:
 Charge = -1 Multiplicity = 1

                          Input orientation:
 ---------------------------------------------------------------------
 Center     Atomic      Atomic             Coordinates (Angstroms)
 Number     Number       Type             X           Y           Z
 ---------------------------------------------------------------------
      1          6           0        0.627349    0.000004   -0.000042
      2         17           0       -2.279065    0.000000    0.000024
      3          1           0        0.249177    0.002388   -1.021674
      4          1           0        0.249955    0.883680    0.513319
      5          1           0        0.249954   -0.886053    0.509195
      6          6           0        2.117732    0.000001   -0.000218
      7          7           0        3.285019   -0.000005    0.000103
 ---------------------------------------------------------------------

 SCF Done:  E(RB3LYP) =  -593.055978131     A.U. after   13 cycles

 Alpha  occ. eigenvalues -- -101.25536 -14.22096 -10.11775 -10.08540  -9.16947
 Alpha  occ. eigenvalues --   -6.92734  -6.92734  -6.92691  -0.78692  -0.62607
 Alpha  occ. eigenvalues --   -0.51075  -0.36703  -0.31274  -0.31270  -0.25066
 Alpha  occ. eigenvalues --   -0.20888  -0.20886  -0.05593  -0.05593  -0.05422
 Alpha virt. eigenvalues --    0.10559   0.14312   0.14312   0.14580   0.15208
 Alpha virt. eigenvalues --    0.15209   0.20265   0.20965   0.20966   0.21848
 Alpha virt. eigenvalues --    0.23827   0.23830   0.25830   0.26127   0.26127

 Mulliken charges:
               1
     1  C    0.053694
     2  Cl  -0.897776
     3  H    0.219718
     4  H    0.219673
     5  H    0.219673
     6  C   -0.233245
     7  N   -0.581737
 Sum of Mulliken charges =  -1.00000

 Dipole moment (field-independent basis, Debye):
    X=              5.0008    Y=              0.0000    Z=             -0.0001  Tot=              5.0008
 Quadrupole moment (field-independent basis, Debye-Ang):
   XX=            -83.8053   YY=            -35.4078   ZZ=            -35.4065
   XY=              0.0000   XZ=              0.0000   YZ=             -0.0000

  Exact polarizability:  81.056  -0.000  41.185   0.001  -0.000  41.188
 Approx polarizability: 100.322  -0.000  50.347   0.005  -0.000  50.350

                      1                      2                      3
                      A                      A                      A
 Frequencies --     76.8153                77.1848               201.4089
 Red. masses --      3.9274                 3.9300                13.0513
 Frc consts  --      0.0137                 0.0138                 0.3119
 IR Inten    --     22.1007                22.0956                19.6438

                      4                      5                      6
                      A                      A                      A
 Frequencies --    409.4012               409.5178               836.8655
 Red. masses --      3.3341                 3.3347                 6.0172
 Frc consts  --      0.3292                 0.3295                 2.4829
 IR Inten    --      0.6869                 0.6862                19.4166

                      7                      8                      9
                      A                      A                      A
 Frequencies --   1019.9964              1020.1219              1325.2636
 Red. masses --      1.4833                 1.4829                 1.1539
 Frc consts  --      0.9092                 0.9092                 1.1940
 IR Inten    --      1.4382                 1.4463                41.6031

                     10                     11                     12
                      A                      A                      A
 Frequencies --   1438.2769              1438.5126              2293.0723
 Red. masses --      1.0420                 1.0421                12.4502
 Frc consts  --      1.2700                 1.2705                38.5711
 IR Inten    --     11.2895                11.2794                43.5428

                     13                     14                     15
                      A                      A                      A
 Frequencies --   3100.9505              3189.6081              3190.0114
 Red. masses --      1.0317                 1.1045                 1.1045
 Frc consts  --      5.8451                 6.6204                 6.6224
 IR Inten    --      2.9274                 0.3528                 0.3580

 - Thermochemistry -
 -------------------
 Temperature   298.150 Kelvin.  Pressure   1.00000 Atm.
 Atom     1 has atomic number  6 and mass  12.00000

 Molecular mass:    75.99540 amu.
 Principal axes and moments of inertia in atomic units:
                           1         2         3
     Eigenvalues --    11.274181403.614551403.61674
           X            1.00000   0.00001   0.00000
           Y           -0.00000  -0.00623   0.99998
           Z           -0.00001   0.99998   0.00623
 This molecule is an asymmetric top.
 Rotational symmetry number  1.
 Rotational temperatures (Kelvin)      7.68250     0.06171     0.06171
 Rotational constants (GHZ):         160.07733     1.28578     1.28578
 Zero-point vibrational energy     119788.1 (Joules/Mol)
                                   28.63004 (Kcal/Mol)
 Warning -- explicit consideration of   5 degrees of freedom as
           vibrations may cause significant error
 Vibrational temperatures:    110.52   111.05   289.78   589.04   589.20
          (Kelvin)           1204.06  1467.55  1467.73  1906.76  2069.36
                             2069.70  3299.22  4461.58  4589.13  4589.71

 Zero-point correction=                           0.045625 (Hartree/Particle)
 Thermal correction to Energy=                    0.051335
 Thermal correction to Enthalpy=                  0.052279
 Thermal correction to Gibbs Free Energy=         0.016252
 Sum of electronic and zero-point Energies=           -593.010353
 Sum of electronic and thermal Energies=              -593.004643
 Sum of electronic and thermal Enthalpies=            -593.003699
 Sum of electronic and thermal Free Energies=         -593.039727

                     E (Thermal)             CV                S
                      KCal/Mol        Cal/Mol-Kelvin    Cal/Mol-Kelvin
 Total                   32.213             16.257             75.827
 Electronic               0.000              0.000              0.000
 Translational            0.889              2.981             38.900
 Rotational               0.889              2.981             24.611
 Vibrational             30.436             10.295             12.316
 Vibration     1          0.599              1.965              3.971
 Vibration     2          0.599              1.964              3.961
 Vibration     3          0.638              1.838              2.120
 Vibration     4          0.774              1.450              0.929
 Vibration     5          0.774              1.450              0.928

 Normal termination of Gaussian 16 at Sun Oct 13 09:49:07 2024.
