 Gaussian 16, Revision B.01,
 Gaussian 16:  ES64L-G16RevB.01 20-Dec-2017

 ---------------------------------------------------------------------
 #p b3lyp 6-31++g(d,p) scf=verytight NoSymm freq=noraman int=ultrafine
 ---------------------------------------------------------------------

 ------------------------
 RxCoord=-4.49902 DE=5.84
 ------------------------
 Symbolic Z-matrix:
 Charge = -1 Multiplicity = 1

                          Input orientation:
 ---------------------------------------------------------------------
 Center     Atomic      Atomic             Coordinates (Angstroms)
 Number     Number       Type             X           Y           Z
 ---------------------------------------------------------------------
      1          6           0        0.614643    0.000004   -0.000088
      2         17           0       -2.276557    0.000000    0.000040
      3          1           0        0.239626    0.002390   -1.022753
      4          1           0        0.240319    0.884536    0.513775
      5          1           0        0.240313   -0.886910    0.509648
      6          6           0        2.120394    0.000001   -0.000211
      7          7           0        3.289439   -0.000005    0.000108
 ---------------------------------------------------------------------

 SCF Done:  E(RB3LYP) =  -593.055172742     A.U. after   13 cycles

 Alpha  occ. eigenvalues -- -101.25555 -14.22144 -10.11832 -10.08647  -9.16970
 Alpha  occ. eigenvalues --   -6.92756  -6.92756  -6.92714  -0.78584  -0.62312
 Alpha  occ. eigenvalues --   -0.51104  -0.36522  -0.31136  -0.31132  -0.25037
 Alpha  occ. eigenvalues --   -0.20908  -0.20906  -0.05621  -0.05621  -0.05442
 Alpha virt. eigenvalues --    0.10569   0.14359   0.14359   0.14584   0.15139
 Alpha virt. eigenvalues --    0.15141   0.20297   0.20966   0.20967   0.21816
 Alpha virt. eigenvalues --    0.23857   0.23860   0.25816   0.26129   0.26129

 Mulliken charges:
               1
     1  C    0.053224
     2  Cl  -0.895483
     3  H    0.219624
     4  H    0.219591
     5  H    0.219592
     6  C   -0.239315
     7  N   -0.577234
 Sum of Mulliken charges =  -1.00000

 Dipole moment (field-independent basis, Debye):
    X=              4.9546    Y=              0.0000    Z=             -0.0002  Tot=              4.9546
 Quadrupole moment (field-independent basis, Debye-Ang):
   XX=            -83.7968   YY=            -35.4248   ZZ=            -35.4234
   XY=              0.0000   XZ=              0.0001   YZ=             -0.0000

  Exact polarizability:  81.479  -0.000  41.183   0.001  -0.000  41.186
 Approx polarizability: 100.758  -0.000  50.377   0.005  -0.000  50.380

                      1                      2                      3
                      A                      A                      A
 Frequencies --     96.2971                96.5989               204.7061
 Red. masses --      3.9731                 3.9758                13.1511
 Frc consts  --      0.0217                 0.0219                 0.3247
 IR Inten    --     22.0579                22.0532                19.6726

                      4                      5                      6
                      A                      A                      A
 Frequencies --    417.8252               417.9479               797.3508
 Red. masses --      3.3278                 3.3285                 6.3845
 Frc consts  --      0.3423                 0.3426                 2.3915
 IR Inten    --      0.6036                 0.6026                23.0057

                      7                      8                      9
                      A                      A                      A
 Frequencies --   1020.4376              1020.5736              1319.1808
 Red. masses --      1.4754                 1.4751                 1.1416
 Frc consts  --      0.9052                 0.9052                 1.1705
 IR Inten    --      1.3056                 1.3142                37.4783

                     10                     11                     12
                      A                      A                      A
 Frequencies --   1438.7676              1438.9910              2274.1536
 Red. masses --      1.0429                 1.0429                12.4385
 Frc consts  --      1.2719                 1.2724                37.9017
 IR Inten    --     11.0940                11.0835                37.7218

                     13                     14                     15
                      A                      A                      A
 Frequencies --   3101.8116              3192.9379              3193.3222
 Red. masses --      1.0310                 1.1051                 1.1051
 Frc consts  --      5.8441                 6.6377                 6.6396
 IR Inten    --      2.6112                 0.3492                 0.3542

 - Thermochemistry -
 -------------------
 Temperature   298.150 Kelvin.  Pressure   1.00000 Atm.
 Atom     1 has atomic number  6 and mass  12.00000

 Molecular mass:    75.99540 amu.
 Principal axes and moments of inertia in atomic units:
                           1         2         3
     Eigenvalues --    11.296391403.408221403.41078
           X            1.00000   0.00001   0.00000
           Y           -0.00000  -0.00537   0.99999
           Z           -0.00001   0.99999   0.00537
 This molecule is an asymmetric top.
 Rotational symmetry number  1.
 Rotational temperatures (Kelvin)      7.66740     0.06172     0.06172
 Rotational constants (GHZ):         159.76271     1.28597     1.28597
 Zero-point vibrational energy     119811.4 (Joules/Mol)
                                   28.63561 (Kcal/Mol)
 Warning -- explicit consideration of   5 degrees of freedom as
           vibrations may cause significant error
 Vibrational temperatures:    138.55   138.98   294.53   601.16   601.33
          (Kelvin)           1147.21  1468.18  1468.38  1898.01  2070.07
                             2070.39  3272.00  4462.81  4593.93  4594.48

 Zero-point correction=                           0.045634 (Hartree/Particle)
 Thermal correction to Energy=                    0.051258
 Thermal correction to Enthalpy=                  0.052202
 Thermal correction to Gibbs Free Energy=         0.016620
 Sum of electronic and zero-point Energies=           -593.009539
 Sum of electronic and thermal Energies=              -593.003915
 Sum of electronic and thermal Enthalpies=            -593.002971
 Sum of electronic and thermal Free Energies=         -593.038553

                     E (Thermal)             CV                S
                      KCal/Mol        Cal/Mol-Kelvin    Cal/Mol-Kelvin
 Total                   32.165             16.255             74.889
 Electronic               0.000              0.000              0.000
 Translational            0.889              2.981             38.900
 Rotational               0.889              2.981             24.612
 Vibrational             30.387             10.294             11.376
 Vibration     1          0.603              1.952              3.528
 Vibration     2          0.603              1.952              3.522
 Vibration     3          0.640              1.833              2.090
 Vibration     4          0.781              1.432              0.899
 Vibration     5          0.781              1.431              0.899

 Normal termination of Gaussian 16 at Sun Oct 13 09:49:07 2024.
