 Gaussian 16, Revision B.01,
 Gaussian 16:  ES64L-G16RevB.01 20-Dec-2017

 ---------------------------------------------------------------------
 #p b3lyp 6-31++g(d,p) scf=verytight NoSymm freq=noraman int=ultrafine
 ---------------------------------------------------------------------

 ------------------------
 RxCoord=-4.39905 DE=6.61
 ------------------------
 Symbolic Z-matrix:
 Charge = -1 Multiplicity = 1

                          Input orientation:
 ---------------------------------------------------------------------
 Center     Atomic      Atomic             Coordinates (Angstroms)
 Number     Number       Type             X           Y           Z
 ---------------------------------------------------------------------
      1          6           0        0.601902    0.000004   -0.000125
      2         17           0       -2.274442    0.000000    0.000054
      3          1           0        0.230730    0.002391   -1.024004
      4          1           0        0.231353    0.885560    0.514322
      5          1           0        0.231345   -0.887935    0.510191
      6          6           0        2.123605    0.000001   -0.000206
      7          7           0        3.294253   -0.000005    0.000113
 ---------------------------------------------------------------------

 SCF Done:  E(RB3LYP) =  -593.054138039     A.U. after   13 cycles

 Alpha  occ. eigenvalues -- -101.25576 -14.22182 -10.11876 -10.08761  -9.16994
 Alpha  occ. eigenvalues --   -6.92780  -6.92780  -6.92739  -0.78477  -0.62022
 Alpha  occ. eigenvalues --   -0.51134  -0.36327  -0.31011  -0.31006  -0.24999
 Alpha  occ. eigenvalues --   -0.20929  -0.20927  -0.05651  -0.05651  -0.05464
 Alpha virt. eigenvalues --    0.10578   0.14407   0.14408   0.14587   0.15077
 Alpha virt. eigenvalues --    0.15078   0.20328   0.20966   0.20967   0.21777
 Alpha virt. eigenvalues --    0.23883   0.23886   0.25796   0.26129   0.26129

 Mulliken charges:
               1
     1  C    0.051462
     2  Cl  -0.893108
     3  H    0.219503
     4  H    0.219479
     5  H    0.219480
     6  C   -0.243890
     7  N   -0.572926
 Sum of Mulliken charges =  -1.00000

 Dipole moment (field-independent basis, Debye):
    X=              4.9064    Y=              0.0000    Z=             -0.0004  Tot=              4.9064
 Quadrupole moment (field-independent basis, Debye-Ang):
   XX=            -83.8057   YY=            -35.4402   ZZ=            -35.4387
   XY=              0.0000   XZ=              0.0001   YZ=             -0.0000

  Exact polarizability:  81.941  -0.000  41.180   0.001  -0.000  41.183
 Approx polarizability: 101.219  -0.000  50.404   0.005  -0.000  50.407

                      1                      2                      3
                      A                      A                      A
 Frequencies --    110.9932               111.2559               207.7430
 Red. masses --      4.0197                 4.0223                13.2571
 Frc consts  --      0.0292                 0.0293                 0.3371
 IR Inten    --     22.0147                22.0103                19.6971

                      4                      5                      6
                      A                      A                      A
 Frequencies --    424.9294               425.0527               756.2476
 Red. masses --      3.3282                 3.3290                 6.7353
 Frc consts  --      0.3541                 0.3544                 2.2695
 IR Inten    --      0.5263                 0.5252                27.8398

                      7                      8                      9
                      A                      A                      A
 Frequencies --   1020.7080              1020.8519              1313.0090
 Red. masses --      1.4661                 1.4658                 1.1313
 Frc consts  --      0.9000                 0.9000                 1.1491
 IR Inten    --      1.1710                 1.1795                32.9457

                     10                     11                     12
                      A                      A                      A
 Frequencies --   1439.1972              1439.4013              2256.8057
 Red. masses --      1.0438                 1.0438                12.4270
 Frc consts  --      1.2738                 1.2742                37.2910
 IR Inten    --     10.8848                10.8740                32.1515

                     13                     14                     15
                      A                      A                      A
 Frequencies --   3103.0406              3196.9553              3197.3073
 Red. masses --      1.0302                 1.1057                 1.1057
 Frc consts  --      5.8443                 6.6581                 6.6599
 IR Inten    --      2.2474                 0.3504                 0.3553

 - Thermochemistry -
 -------------------
 Temperature   298.150 Kelvin.  Pressure   1.00000 Atm.
 Atom     1 has atomic number  6 and mass  12.00000

 Molecular mass:    75.99540 amu.
 Principal axes and moments of inertia in atomic units:
                           1         2         3
     Eigenvalues --    11.322691403.678451403.68117
           X            1.00000   0.00001   0.00000
           Y           -0.00000  -0.00247   1.00000
           Z           -0.00001   1.00000   0.00247
 This molecule is an asymmetric top.
 Rotational symmetry number  1.
 Rotational temperatures (Kelvin)      7.64959     0.06170     0.06170
 Rotational constants (GHZ):         159.39157     1.28572     1.28572
 Zero-point vibrational energy     119767.1 (Joules/Mol)
                                   28.62503 (Kcal/Mol)
 Warning -- explicit consideration of   5 degrees of freedom as
           vibrations may cause significant error
 Vibrational temperatures:    159.69   160.07   298.90   611.38   611.56
          (Kelvin)           1088.07  1468.57  1468.78  1889.13  2070.68
                             2070.98  3247.04  4464.58  4599.71  4600.21

 Zero-point correction=                           0.045617 (Hartree/Particle)
 Thermal correction to Energy=                    0.051180
 Thermal correction to Enthalpy=                  0.052125
 Thermal correction to Gibbs Free Energy=         0.016821
 Sum of electronic and zero-point Energies=           -593.008521
 Sum of electronic and thermal Energies=              -593.002958
 Sum of electronic and thermal Enthalpies=            -593.002014
 Sum of electronic and thermal Free Energies=         -593.037317

                     E (Thermal)             CV                S
                      KCal/Mol        Cal/Mol-Kelvin    Cal/Mol-Kelvin
 Total                   32.116             16.270             74.302
 Electronic               0.000              0.000              0.000
 Translational            0.889              2.981             38.900
 Rotational               0.889              2.981             24.615
 Vibrational             30.339             10.308             10.787
 Vibration     1          0.607              1.940              3.251
 Vibration     2          0.607              1.940              3.247
 Vibration     3          0.641              1.829              2.063
 Vibration     4          0.787              1.416              0.875
 Vibration     5          0.787              1.416              0.875

 Normal termination of Gaussian 16 at Sun Oct 13 09:49:08 2024.
