 Gaussian 16, Revision B.01,
 Gaussian 16:  ES64L-G16RevB.01 20-Dec-2017

 ---------------------------------------------------------------------
 #p b3lyp 6-31++g(d,p) scf=verytight NoSymm freq=noraman int=ultrafine
 ---------------------------------------------------------------------

 ------------------------
 RxCoord=-4.29907 DE=7.50
 ------------------------
 Symbolic Z-matrix:
 Charge = -1 Multiplicity = 1

                          Input orientation:
 ---------------------------------------------------------------------
 Center     Atomic      Atomic             Coordinates (Angstroms)
 Number     Number       Type             X           Y           Z
 ---------------------------------------------------------------------
      1          6           0        0.589142    0.000004   -0.000154
      2         17           0       -2.272578    0.000000    0.000065
      3          1           0        0.222402    0.002393   -1.025392
      4          1           0        0.222968    0.886716    0.514941
      5          1           0        0.222957   -0.889093    0.510805
      6          6           0        2.127184    0.000001   -0.000201
      7          7           0        3.299274   -0.000005    0.000117
 ---------------------------------------------------------------------

 SCF Done:  E(RB3LYP) =  -593.052890882     A.U. after   13 cycles

 Alpha  occ. eigenvalues -- -101.25602 -14.22209 -10.11905 -10.08881  -9.17023
 Alpha  occ. eigenvalues --   -6.92807  -6.92807  -6.92768  -0.78370  -0.61740
 Alpha  occ. eigenvalues --   -0.51165  -0.36120  -0.30898  -0.30893  -0.24952
 Alpha  occ. eigenvalues --   -0.20946  -0.20945  -0.05683  -0.05683  -0.05489
 Alpha virt. eigenvalues --    0.10586   0.14457   0.14458   0.14591   0.15022
 Alpha virt. eigenvalues --    0.15023   0.20357   0.20967   0.20967   0.21731
 Alpha virt. eigenvalues --    0.23906   0.23909   0.25766   0.26128   0.26128

 Mulliken charges:
               1
     1  C    0.048510
     2  Cl  -0.890629
     3  H    0.219367
     4  H    0.219348
     5  H    0.219350
     6  C   -0.247069
     7  N   -0.568877
 Sum of Mulliken charges =  -1.00000

 Dipole moment (field-independent basis, Debye):
    X=              4.8550    Y=              0.0000    Z=             -0.0005  Tot=              4.8550
 Quadrupole moment (field-independent basis, Debye-Ang):
   XX=            -83.8283   YY=            -35.4537   ZZ=            -35.4522
   XY=              0.0000   XZ=              0.0002   YZ=             -0.0000

  Exact polarizability:  82.450  -0.000  41.175   0.001  -0.000  41.177
 Approx polarizability: 101.720  -0.000  50.428   0.005  -0.000  50.430

                      1                      2                      3
                      A                      A                      A
 Frequencies --    122.5804               122.8144               210.5659
 Red. masses --      4.0669                 4.0694                13.3702
 Frc consts  --      0.0360                 0.0362                 0.3493
 IR Inten    --     21.9732                21.9691                19.7116

                      4                      5                      6
                      A                      A                      A
 Frequencies --    430.7913               430.9086               714.0465
 Red. masses --      3.3353                 3.3361                 7.0654
 Frc consts  --      0.3647                 0.3650                 2.1225
 IR Inten    --      0.4545                 0.4535                34.1315

                      7                      8                      9
                      A                      A                      A
 Frequencies --   1020.7944              1020.9421              1306.7642
 Red. masses --      1.4556                 1.4553                 1.1227
 Frc consts  --      0.8936                 0.8937                 1.1296
 IR Inten    --      1.0390                 1.0468                28.2224

                     10                     11                     12
                      A                      A                      A
 Frequencies --   1439.5406              1439.7185              2241.1332
 Red. masses --      1.0448                 1.0448                12.4162
 Frc consts  --      1.2756                 1.2760                36.7430
 IR Inten    --     10.6655                10.6544                26.9642

                     13                     14                     15
                      A                      A                      A
 Frequencies --   3104.5919              3201.5521              3201.8459
 Red. masses --      1.0294                 1.1063                 1.1064
 Frc consts  --      5.8455                 6.6812                 6.6827
 IR Inten    --      1.8619                 0.3565                 0.3610

 - Thermochemistry -
 -------------------
 Temperature   298.150 Kelvin.  Pressure   1.00000 Atm.
 Atom     1 has atomic number  6 and mass  12.00000

 Molecular mass:    75.99540 amu.
 Principal axes and moments of inertia in atomic units:
                           1         2         3
     Eigenvalues --    11.352261404.249991404.25272
           X            1.00000   0.00001   0.00000
           Y           -0.00000  -0.00067   1.00000
           Z           -0.00001   1.00000   0.00067
 This molecule is an asymmetric top.
 Rotational symmetry number  1.
 Rotational temperatures (Kelvin)      7.62967     0.06168     0.06168
 Rotational constants (GHZ):         158.97644     1.28520     1.28520
 Zero-point vibrational energy     119677.9 (Joules/Mol)
                                   28.60372 (Kcal/Mol)
 Warning -- explicit consideration of   5 degrees of freedom as
           vibrations may cause significant error
 Vibrational temperatures:    176.37   176.70   302.96   619.81   619.98
          (Kelvin)           1027.35  1468.70  1468.91  1880.14  2071.18
                             2071.43  3224.49  4466.82  4606.32  4606.74

 Zero-point correction=                           0.045583 (Hartree/Particle)
 Thermal correction to Energy=                    0.051104
 Thermal correction to Enthalpy=                  0.052048
 Thermal correction to Gibbs Free Energy=         0.016934
 Sum of electronic and zero-point Energies=           -593.007308
 Sum of electronic and thermal Energies=              -593.001787
 Sum of electronic and thermal Enthalpies=            -593.000843
 Sum of electronic and thermal Free Energies=         -593.035956

                     E (Thermal)             CV                S
                      KCal/Mol        Cal/Mol-Kelvin    Cal/Mol-Kelvin
 Total                   32.068             16.300             73.903
 Electronic               0.000              0.000              0.000
 Translational            0.889              2.981             38.900
 Rotational               0.889              2.981             24.619
 Vibrational             30.291             10.338             10.385
 Vibration     1          0.610              1.930              3.059
 Vibration     2          0.610              1.930              3.056
 Vibration     3          0.643              1.825              2.039
 Vibration     4          0.792              1.403              0.856
 Vibration     5          0.792              1.403              0.856

 Normal termination of Gaussian 16 at Sun Oct 13 09:49:09 2024.
