 Gaussian 16, Revision B.01,
 Gaussian 16:  ES64L-G16RevB.01 20-Dec-2017

 ---------------------------------------------------------------------
 #p b3lyp 6-31++g(d,p) scf=verytight NoSymm freq=noraman int=ultrafine
 ---------------------------------------------------------------------

 ------------------------
 RxCoord=-4.19909 DE=8.51
 ------------------------
 Symbolic Z-matrix:
 Charge = -1 Multiplicity = 1

                          Input orientation:
 ---------------------------------------------------------------------
 Center     Atomic      Atomic             Coordinates (Angstroms)
 Number     Number       Type             X           Y           Z
 ---------------------------------------------------------------------
      1          6           0        0.576362    0.000005   -0.000177
      2         17           0       -2.270885    0.000000    0.000074
      3          1           0        0.214571    0.002396   -1.026889
      4          1           0        0.215085    0.887977    0.515621
      5          1           0        0.215073   -0.890357    0.511480
      6          6           0        2.131031    0.000001   -0.000197
      7          7           0        3.304400   -0.000005    0.000120
 ---------------------------------------------------------------------

 SCF Done:  E(RB3LYP) =  -593.051451268     A.U. after   13 cycles

 Alpha  occ. eigenvalues -- -101.25631 -14.22223 -10.11917 -10.09003  -9.17055
 Alpha  occ. eigenvalues --   -6.92838  -6.92838  -6.92801  -0.78263  -0.61467
 Alpha  occ. eigenvalues --   -0.51198  -0.35903  -0.30797  -0.30793  -0.24893
 Alpha  occ. eigenvalues --   -0.20960  -0.20958  -0.05718  -0.05718  -0.05518
 Alpha virt. eigenvalues --    0.10594   0.14508   0.14509   0.14595   0.14976
 Alpha virt. eigenvalues --    0.14977   0.20384   0.20968   0.20969   0.21676
 Alpha virt. eigenvalues --    0.23927   0.23930   0.25726   0.26126   0.26126

 Mulliken charges:
               1
     1  C    0.044456
     2  Cl  -0.888024
     3  H    0.219224
     4  H    0.219211
     5  H    0.219212
     6  C   -0.248962
     7  N   -0.565117
 Sum of Mulliken charges =  -1.00000

 Dipole moment (field-independent basis, Debye):
    X=              4.7994    Y=              0.0000    Z=             -0.0006  Tot=              4.7994
 Quadrupole moment (field-independent basis, Debye-Ang):
   XX=            -83.8622   YY=            -35.4653   ZZ=            -35.4639
   XY=              0.0000   XZ=              0.0002   YZ=             -0.0000

  Exact polarizability:  83.016  -0.000  41.167   0.001  -0.000  41.169
 Approx polarizability: 102.274  -0.000  50.447   0.006  -0.000  50.449

                      1                      2                      3
                      A                      A                      A
 Frequencies --    131.9078               132.1194               213.2011
 Red. masses --      4.1151                 4.1175                13.4913
 Frc consts  --      0.0422                 0.0423                 0.3613
 IR Inten    --     21.9349                21.9310                19.7072

                      4                      5                      6
                      A                      A                      A
 Frequencies --    435.4974               435.6061               670.9531
 Red. masses --      3.3487                 3.3496                 7.3739
 Frc consts  --      0.3742                 0.3745                 1.9558
 IR Inten    --      0.3875                 0.3865                42.1253

                      7                      8                      9
                      A                      A                      A
 Frequencies --   1020.6919              1020.8393              1300.4289
 Red. masses --      1.4439                 1.4436                 1.1155
 Frc consts  --      0.8863                 0.8864                 1.1115
 IR Inten    --      0.9122                 0.9191                23.4857

                     10                     11                     12
                      A                      A                      A
 Frequencies --   1439.7793              1439.9312              2227.1522
 Red. masses --      1.0458                 1.0459                12.4067
 Frc consts  --      1.2773                 1.2777                36.2583
 IR Inten    --     10.4383                10.4270                22.2251

                     13                     14                     15
                      A                      A                      A
 Frequencies --   3106.4314              3206.6308              3206.8724
 Red. masses --      1.0285                 1.1070                 1.1070
 Frc consts  --      5.8477                 6.7064                 6.7077
 IR Inten    --      1.4764                 0.3673                 0.3716

 - Thermochemistry -
 -------------------
 Temperature   298.150 Kelvin.  Pressure   1.00000 Atm.
 Atom     1 has atomic number  6 and mass  12.00000

 Molecular mass:    75.99540 amu.
 Principal axes and moments of inertia in atomic units:
                           1         2         3
     Eigenvalues --    11.384471405.024821405.02747
           X            1.00000   0.00002   0.00000
           Y           -0.00000  -0.00090   1.00000
           Z           -0.00002   1.00000   0.00090
 This molecule is an asymmetric top.
 Rotational symmetry number  1.
 Rotational temperatures (Kelvin)      7.60808     0.06165     0.06165
 Rotational constants (GHZ):         158.52662     1.28449     1.28449
 Zero-point vibrational energy     119555.0 (Joules/Mol)
                                   28.57434 (Kcal/Mol)
 Warning -- explicit consideration of   5 degrees of freedom as
           vibrations may cause significant error
 Vibrational temperatures:    189.79   190.09   306.75   626.58   626.74
          (Kelvin)            965.35  1468.55  1468.76  1871.03  2071.52
                             2071.74  3204.38  4469.46  4613.63  4613.97

 Zero-point correction=                           0.045536 (Hartree/Particle)
 Thermal correction to Energy=                    0.051029
 Thermal correction to Enthalpy=                  0.051973
 Thermal correction to Gibbs Free Energy=         0.016991
 Sum of electronic and zero-point Energies=           -593.005915
 Sum of electronic and thermal Energies=              -593.000422
 Sum of electronic and thermal Enthalpies=            -592.999478
 Sum of electronic and thermal Free Energies=         -593.034460

                     E (Thermal)             CV                S
                      KCal/Mol        Cal/Mol-Kelvin    Cal/Mol-Kelvin
 Total                   32.021             16.344             73.625
 Electronic               0.000              0.000              0.000
 Translational            0.889              2.981             38.900
 Rotational               0.889              2.981             24.622
 Vibrational             30.244             10.383             10.103
 Vibration     1          0.612              1.921              2.918
 Vibration     2          0.612              1.921              2.915
 Vibration     3          0.644              1.821              2.016
 Vibration     4          0.796              1.393              0.841
 Vibration     5          0.796              1.393              0.841

 Normal termination of Gaussian 16 at Sun Oct 13 09:49:21 2024.
