 Gaussian 16, Revision B.01,
 Gaussian 16:  ES64L-G16RevB.01 20-Dec-2017

 ---------------------------------------------------------------------
 #p b3lyp 6-31++g(d,p) scf=verytight NoSymm freq=noraman int=ultrafine
 ---------------------------------------------------------------------

 ------------------------
 RxCoord=-4.09911 DE=9.64
 ------------------------
 Symbolic Z-matrix:
 Charge = -1 Multiplicity = 1

                          Input orientation:
 ---------------------------------------------------------------------
 Center     Atomic      Atomic             Coordinates (Angstroms)
 Number     Number       Type             X           Y           Z
 ---------------------------------------------------------------------
      1          6           0        0.563559    0.000005   -0.000195
      2         17           0       -2.269311    0.000000    0.000082
      3          1           0        0.207177    0.002398   -1.028476
      4          1           0        0.207645    0.889325    0.516352
      5          1           0        0.207632   -0.891707    0.512205
      6          6           0        2.135078    0.000001   -0.000193
      7          7           0        3.309576   -0.000005    0.000123
 ---------------------------------------------------------------------

 SCF Done:  E(RB3LYP) =  -593.049839962     A.U. after   13 cycles

 Alpha  occ. eigenvalues -- -101.25665 -14.22224 -10.11912 -10.09127  -9.17092
 Alpha  occ. eigenvalues --   -6.92874  -6.92874  -6.92839  -0.78154  -0.61205
 Alpha  occ. eigenvalues --   -0.51234  -0.35678  -0.30708  -0.30704  -0.24824
 Alpha  occ. eigenvalues --   -0.20967  -0.20965  -0.05757  -0.05757  -0.05552
 Alpha virt. eigenvalues --    0.10602   0.14558   0.14559   0.14600   0.14941
 Alpha virt. eigenvalues --    0.14942   0.20408   0.20970   0.20971   0.21610
 Alpha virt. eigenvalues --    0.23944   0.23947   0.25671   0.26123   0.26123

 Mulliken charges:
               1
     1  C    0.039406
     2  Cl  -0.885270
     3  H    0.219083
     4  H    0.219073
     5  H    0.219074
     6  C   -0.249712
     7  N   -0.561654
 Sum of Mulliken charges =  -1.00000

 Dipole moment (field-independent basis, Debye):
    X=              4.7388    Y=              0.0000    Z=             -0.0006  Tot=              4.7388
 Quadrupole moment (field-independent basis, Debye-Ang):
   XX=            -83.9063   YY=            -35.4751   ZZ=            -35.4738
   XY=              0.0000   XZ=              0.0002   YZ=              0.0000

  Exact polarizability:  83.649  -0.000  41.155   0.001  -0.000  41.158
 Approx polarizability: 102.895  -0.000  50.461   0.006  -0.000  50.463

                      1                      2                      3
                      A                      A                      A
 Frequencies --    139.5170               139.7091               215.6649
 Red. masses --      4.1642                 4.1665                13.6215
 Frc consts  --      0.0478                 0.0479                 0.3733
 IR Inten    --     21.9000                21.8963                19.6702

                      4                      5                      6
                      A                      A                      A
 Frequencies --    439.1697               439.2672               627.0330
 Red. masses --      3.3684                 3.3692                 7.6612
 Frc consts  --      0.3828                 0.3830                 1.7747
 IR Inten    --      0.3249                 0.3241                52.0877

                      7                      8                      9
                      A                      A                      A
 Frequencies --   1020.4061              1020.5493              1293.9813
 Red. masses --      1.4311                 1.4309                 1.1094
 Frc consts  --      0.8780                 0.8781                 1.0945
 IR Inten    --      0.7924                 0.7984                18.8907

                     10                     11                     12
                      A                      A                      A
 Frequencies --   1439.9041              1440.0297              2214.7499
 Red. masses --      1.0469                 1.0470                12.3989
 Frc consts  --      1.2789                 1.2792                35.8330
 IR Inten    --     10.2054                10.1940                17.9683

                     13                     14                     15
                      A                      A                      A
 Frequencies --   3108.5142              3212.1126              3212.3005
 Red. masses --      1.0277                 1.1077                 1.1077
 Frc consts  --      5.8508                 6.7335                 6.7345
 IR Inten    --      1.1097                 0.3831                 0.3869

 - Thermochemistry -
 -------------------
 Temperature   298.150 Kelvin.  Pressure   1.00000 Atm.
 Atom     1 has atomic number  6 and mass  12.00000

 Molecular mass:    75.99540 amu.
 Principal axes and moments of inertia in atomic units:
                           1         2         3
     Eigenvalues --    11.418881405.942181405.94467
           X            1.00000   0.00002   0.00000
           Y           -0.00000   0.00238   1.00000
           Z           -0.00002   1.00000  -0.00238
 This molecule is an asymmetric top.
 Rotational symmetry number  1.
 Rotational temperatures (Kelvin)      7.58515     0.06161     0.06161
 Rotational constants (GHZ):         158.04895     1.28365     1.28365
 Zero-point vibrational energy     119404.7 (Joules/Mol)
                                   28.53841 (Kcal/Mol)
 Warning -- explicit consideration of   5 degrees of freedom as
           vibrations may cause significant error
 Vibrational temperatures:    200.73   201.01   310.29   631.87   632.01
          (Kelvin)            902.16  1468.14  1468.34  1861.75  2071.70
                             2071.88  3186.53  4472.46  4621.51  4621.78

 Zero-point correction=                           0.045479 (Hartree/Particle)
 Thermal correction to Energy=                    0.050955
 Thermal correction to Enthalpy=                  0.051900
 Thermal correction to Gibbs Free Energy=         0.017008
 Sum of electronic and zero-point Energies=           -593.004361
 Sum of electronic and thermal Energies=              -592.998885
 Sum of electronic and thermal Enthalpies=            -592.997940
 Sum of electronic and thermal Free Energies=         -593.032832

                     E (Thermal)             CV                S
                      KCal/Mol        Cal/Mol-Kelvin    Cal/Mol-Kelvin
 Total                   31.975             16.402             73.435
 Electronic               0.000              0.000              0.000
 Translational            0.889              2.981             38.900
 Rotational               0.889              2.981             24.627
 Vibrational             30.198             10.441              9.908
 Vibration     1          0.615              1.914              2.810
 Vibration     2          0.615              1.914              2.808
 Vibration     3          0.645              1.817              1.995
 Vibration     4          0.799              1.385              0.829
 Vibration     5          0.799              1.385              0.829

 Normal termination of Gaussian 16 at Sun Oct 13 09:49:18 2024.
