 Gaussian 16, Revision B.01,
 Gaussian 16:  ES64L-G16RevB.01 20-Dec-2017

 ---------------------------------------------------------------------
 #p b3lyp 6-31++g(d,p) scf=verytight NoSymm freq=noraman int=ultrafine
 ---------------------------------------------------------------------

 -------------------------
 RxCoord=-3.99912 DE=10.86
 -------------------------
 Symbolic Z-matrix:
 Charge = -1 Multiplicity = 1

                          Input orientation:
 ---------------------------------------------------------------------
 Center     Atomic      Atomic             Coordinates (Angstroms)
 Number     Number       Type             X           Y           Z
 ---------------------------------------------------------------------
      1          6           0        0.550731    0.000005   -0.000210
      2         17           0       -2.267823    0.000000    0.000088
      3          1           0        0.200176    0.002401   -1.030136
      4          1           0        0.200603    0.890742    0.517125
      5          1           0        0.200588   -0.893128    0.512972
      6          6           0        2.139282    0.000001   -0.000190
      7          7           0        3.314768   -0.000005    0.000126
 ---------------------------------------------------------------------

 SCF Done:  E(RB3LYP) =  -593.048077651     A.U. after   13 cycles

 Alpha  occ. eigenvalues -- -101.25704 -14.22212 -10.11889 -10.09253  -9.17134
 Alpha  occ. eigenvalues --   -6.92915  -6.92915  -6.92883  -0.78043  -0.60953
 Alpha  occ. eigenvalues --   -0.51273  -0.35443  -0.30631  -0.30627  -0.24743
 Alpha  occ. eigenvalues --   -0.20967  -0.20966  -0.05799  -0.05799  -0.05590
 Alpha virt. eigenvalues --    0.10609   0.14604   0.14605   0.14605   0.14921
 Alpha virt. eigenvalues --    0.14922   0.20428   0.20974   0.20974   0.21531
 Alpha virt. eigenvalues --    0.23960   0.23962   0.25596   0.26119   0.26119

 Mulliken charges:
               1
     1  C    0.033449
     2  Cl  -0.882346
     3  H    0.218948
     4  H    0.218941
     5  H    0.218943
     6  C   -0.249442
     7  N   -0.558493
 Sum of Mulliken charges =  -1.00000

 Dipole moment (field-independent basis, Debye):
    X=              4.6723    Y=              0.0000    Z=             -0.0007  Tot=              4.6723
 Quadrupole moment (field-independent basis, Debye-Ang):
   XX=            -83.9594   YY=            -35.4830   ZZ=            -35.4818
   XY=              0.0000   XZ=              0.0002   YZ=              0.0000

  Exact polarizability:  84.358  -0.000  41.140   0.001  -0.000  41.142
 Approx polarizability: 103.597  -0.000  50.470   0.006  -0.000  50.472

                      1                      2                      3
                      A                      A                      A
 Frequencies --    145.7571               145.9325               217.9658
 Red. masses --      4.2145                 4.2166                13.7625
 Frc consts  --      0.0528                 0.0529                 0.3852
 IR Inten    --     21.8683                21.8649                19.5776

                      4                      5                      6
                      A                      A                      A
 Frequencies --    441.9003               441.9867               582.2226
 Red. masses --      3.3939                 3.3946                 7.9285
 Frc consts  --      0.3905                 0.3907                 1.5835
 IR Inten    --      0.2665                 0.2658                64.3071

                      7                      8                      9
                      A                      A                      A
 Frequencies --   1019.9417              1020.0780              1287.3941
 Red. masses --      1.4175                 1.4173                 1.1041
 Frc consts  --      0.8688                 0.8689                 1.0782
 IR Inten    --      0.6807                 0.6858                14.5727

                     10                     11                     12
                      A                      A                      A
 Frequencies --   1439.9064              1440.0080              2203.8287
 Red. masses --      1.0481                 1.0482                12.3930
 Frc consts  --      1.2804                 1.2806                35.4635
 IR Inten    --      9.9683                 9.9570                14.2063

                     13                     14                     15
                      A                      A                      A
 Frequencies --   3110.8154              3217.9360              3218.0832
 Red. masses --      1.0268                 1.1084                 1.1084
 Frc consts  --      5.8547                 6.7622                 6.7630
 IR Inten    --      0.7778                 0.4038                 0.4073

 - Thermochemistry -
 -------------------
 Temperature   298.150 Kelvin.  Pressure   1.00000 Atm.
 Atom     1 has atomic number  6 and mass  12.00000

 Molecular mass:    75.99540 amu.
 Principal axes and moments of inertia in atomic units:
                           1         2         3
     Eigenvalues --    11.455091406.963741406.96602
           X            1.00000   0.00002   0.00000
           Y           -0.00000   0.00302   1.00000
           Z           -0.00002   1.00000  -0.00302
 This molecule is an asymmetric top.
 Rotational symmetry number  1.
 Rotational temperatures (Kelvin)      7.56118     0.06156     0.06156
 Rotational constants (GHZ):         157.54935     1.28272     1.28272
 Zero-point vibrational energy     119230.3 (Joules/Mol)
                                   28.49674 (Kcal/Mol)
 Warning -- explicit consideration of   6 degrees of freedom as
           vibrations may cause significant error
 Vibrational temperatures:    209.71   209.96   313.60   635.80   635.92
          (Kelvin)            837.69  1467.47  1467.66  1852.27  2071.70
                             2071.85  3170.82  4475.77  4629.89  4630.10

 Zero-point correction=                           0.045412 (Hartree/Particle)
 Thermal correction to Energy=                    0.050884
 Thermal correction to Enthalpy=                  0.051828
 Thermal correction to Gibbs Free Energy=         0.016994
 Sum of electronic and zero-point Energies=           -593.002665
 Sum of electronic and thermal Energies=              -592.997194
 Sum of electronic and thermal Enthalpies=            -592.996250
 Sum of electronic and thermal Free Energies=         -593.031083

                     E (Thermal)             CV                S
                      KCal/Mol        Cal/Mol-Kelvin    Cal/Mol-Kelvin
 Total                   31.930             16.473             73.313
 Electronic               0.000              0.000              0.000
 Translational            0.889              2.981             38.900
 Rotational               0.889              2.981             24.631
 Vibrational             30.152             10.511              9.782
 Vibration     1          0.617              1.907              2.727
 Vibration     2          0.617              1.907              2.725
 Vibration     3          0.646              1.814              1.976
 Vibration     4          0.802              1.379              0.821
 Vibration     5          0.802              1.379              0.820
 Vibration     6          0.939              1.070              0.481

 Normal termination of Gaussian 16 at Sun Oct 13 09:49:19 2024.
