 Gaussian 16, Revision B.01,
 Gaussian 16:  ES64L-G16RevB.01 20-Dec-2017

 ---------------------------------------------------------------------
 #p b3lyp 6-31++g(d,p) scf=verytight NoSymm freq=noraman int=ultrafine
 ---------------------------------------------------------------------

 -------------------------
 RxCoord=-3.89914 DE=12.17
 -------------------------
 Symbolic Z-matrix:
 Charge = -1 Multiplicity = 1

                          Input orientation:
 ---------------------------------------------------------------------
 Center     Atomic      Atomic             Coordinates (Angstroms)
 Number     Number       Type             X           Y           Z
 ---------------------------------------------------------------------
      1          6           0        0.537874    0.000005   -0.000221
      2         17           0       -2.266395   -0.000001    0.000093
      3          1           0        0.193534    0.002404   -1.031857
      4          1           0        0.193922    0.892218    0.517933
      5          1           0        0.193907   -0.894606    0.513774
      6          6           0        2.143608    0.000001   -0.000188
      7          7           0        3.319953   -0.000005    0.000128
 ---------------------------------------------------------------------

 SCF Done:  E(RB3LYP) =  -593.046184223     A.U. after   12 cycles

 Alpha  occ. eigenvalues -- -101.25750 -14.22185 -10.11848 -10.09378  -9.17182
 Alpha  occ. eigenvalues --   -6.92962  -6.92962  -6.92932  -0.77928  -0.60713
 Alpha  occ. eigenvalues --   -0.51316  -0.35201  -0.30564  -0.30561  -0.24650
 Alpha  occ. eigenvalues --   -0.20959  -0.20958  -0.05846  -0.05846  -0.05635
 Alpha virt. eigenvalues --    0.10618   0.14612   0.14641   0.14642   0.14921
 Alpha virt. eigenvalues --    0.14921   0.20444   0.20979   0.20979   0.21436
 Alpha virt. eigenvalues --    0.23973   0.23975   0.25493   0.26113   0.26113

 Mulliken charges:
               1
     1  C    0.026675
     2  Cl  -0.879231
     3  H    0.218824
     4  H    0.218819
     5  H    0.218821
     6  C   -0.248276
     7  N   -0.555632
 Sum of Mulliken charges =  -1.00000

 Dipole moment (field-independent basis, Debye):
    X=              4.5994    Y=              0.0000    Z=             -0.0008  Tot=              4.5994
 Quadrupole moment (field-independent basis, Debye-Ang):
   XX=            -84.0208   YY=            -35.4891   ZZ=            -35.4881
   XY=              0.0000   XZ=              0.0003   YZ=              0.0000

  Exact polarizability:  85.150  -0.000  41.120   0.002  -0.000  41.122
 Approx polarizability: 104.391  -0.000  50.474   0.006   0.000  50.475

                      1                      2                      3
                      A                      A                      A
 Frequencies --    150.8834               151.0432               220.1085
 Red. masses --      4.2659                 4.2678                13.9170
 Frc consts  --      0.0572                 0.0574                 0.3973
 IR Inten    --     21.8394                21.8362                19.3897

                      4                      5                      6
                      A                      A                      A
 Frequencies --    443.7808               443.8542               536.3433
 Red. masses --      3.4250                 3.4256                 8.1768
 Frc consts  --      0.3974                 0.3976                 1.3859
 IR Inten    --      0.2123                 0.2118                79.0926

                      7                      8                      9
                      A                      A                      A
 Frequencies --   1019.3108              1019.4365              1280.6431
 Red. masses --      1.4032                 1.4030                 1.0995
 Frc consts  --      0.8590                 0.8591                 1.0624
 IR Inten    --      0.5780                 0.5821                10.6505

                     10                     11                     12
                      A                      A                      A
 Frequencies --   1439.7833              1439.8606              2194.2650
 Red. masses --      1.0494                 1.0495                12.3891
 Frc consts  --      1.2817                 1.2819                35.1454
 IR Inten    --      9.7285                 9.7174                10.9386

                     13                     14                     15
                      A                      A                      A
 Frequencies --   3113.3057              3224.0577              3224.1574
 Red. masses --      1.0260                 1.1091                 1.1091
 Frc consts  --      5.8592                 6.7922                 6.7928
 IR Inten    --      0.4939                 0.4298                 0.4327

 - Thermochemistry -
 -------------------
 Temperature   298.150 Kelvin.  Pressure   1.00000 Atm.
 Atom     1 has atomic number  6 and mass  12.00000

 Molecular mass:    75.99540 amu.
 Principal axes and moments of inertia in atomic units:
                           1         2         3
     Eigenvalues --    11.492811408.060221408.06228
           X            1.00000   0.00002   0.00000
           Y           -0.00000   0.00567   0.99998
           Z           -0.00002   0.99998  -0.00567
 This molecule is an asymmetric top.
 Rotational symmetry number  1.
 Rotational temperatures (Kelvin)      7.53636     0.06151     0.06151
 Rotational constants (GHZ):         157.03217     1.28172     1.28172
 Zero-point vibrational energy     119033.4 (Joules/Mol)
                                   28.44967 (Kcal/Mol)
 Warning -- explicit consideration of   6 degrees of freedom as
           vibrations may cause significant error
 Vibrational temperatures:    217.09   217.32   316.69   638.50   638.61
          (Kelvin)            771.68  1466.56  1466.74  1842.56  2071.53
                             2071.64  3157.06  4479.35  4638.70  4638.84

 Zero-point correction=                           0.045337 (Hartree/Particle)
 Thermal correction to Energy=                    0.050813
 Thermal correction to Enthalpy=                  0.051758
 Thermal correction to Gibbs Free Energy=         0.016954
 Sum of electronic and zero-point Energies=           -593.000847
 Sum of electronic and thermal Energies=              -592.995371
 Sum of electronic and thermal Enthalpies=            -592.994427
 Sum of electronic and thermal Free Energies=         -593.029230

                     E (Thermal)             CV                S
                      KCal/Mol        Cal/Mol-Kelvin    Cal/Mol-Kelvin
 Total                   31.886             16.555             73.250
 Electronic               0.000              0.000              0.000
 Translational            0.889              2.981             38.900
 Rotational               0.889              2.981             24.636
 Vibrational             30.108             10.594              9.714
 Vibration     1          0.618              1.902              2.661
 Vibration     2          0.618              1.902              2.659
 Vibration     3          0.647              1.810              1.958
 Vibration     4          0.803              1.375              0.815
 Vibration     5          0.803              1.374              0.815
 Vibration     6          0.891              1.170              0.573

 Normal termination of Gaussian 16 at Sun Oct 13 09:49:20 2024.
