 Gaussian 16, Revision B.01,
 Gaussian 16:  ES64L-G16RevB.01 20-Dec-2017

 ---------------------------------------------------------------------
 #p b3lyp 6-31++g(d,p) scf=verytight NoSymm freq=noraman int=ultrafine
 ---------------------------------------------------------------------

 -------------------------
 RxCoord=-3.79916 DE=13.55
 -------------------------
 Symbolic Z-matrix:
 Charge = -1 Multiplicity = 1

                          Input orientation:
 ---------------------------------------------------------------------
 Center     Atomic      Atomic             Coordinates (Angstroms)
 Number     Number       Type             X           Y           Z
 ---------------------------------------------------------------------
      1          6           0        0.524986    0.000005   -0.000230
      2         17           0       -2.265012   -0.000001    0.000098
      3          1           0        0.187222    0.002407   -1.033628
      4          1           0        0.187574    0.893739    0.518773
      5          1           0        0.187559   -0.896131    0.514607
      6          6           0        2.148033    0.000001   -0.000186
      7          7           0        3.325119   -0.000005    0.000131
 ---------------------------------------------------------------------

 SCF Done:  E(RB3LYP) =  -593.044178702     A.U. after   12 cycles

 Alpha  occ. eigenvalues -- -101.25801 -14.22144 -10.11789 -10.09503  -9.17236
 Alpha  occ. eigenvalues --   -6.93015  -6.93015  -6.92989  -0.77809  -0.60486
 Alpha  occ. eigenvalues --   -0.51362  -0.34952  -0.30508  -0.30505  -0.24545
 Alpha  occ. eigenvalues --   -0.20941  -0.20940  -0.05899  -0.05899  -0.05685
 Alpha virt. eigenvalues --    0.10626   0.14619   0.14664   0.14665   0.14946
 Alpha virt. eigenvalues --    0.14947   0.20452   0.20985   0.20985   0.21323
 Alpha virt. eigenvalues --    0.23983   0.23986   0.25353   0.26106   0.26106

 Mulliken charges:
               1
     1  C    0.019162
     2  Cl  -0.875905
     3  H    0.218712
     4  H    0.218710
     5  H    0.218712
     6  C   -0.246322
     7  N   -0.553069
 Sum of Mulliken charges =  -1.00000

 Dipole moment (field-independent basis, Debye):
    X=              4.5194    Y=              0.0000    Z=             -0.0008  Tot=              4.5194
 Quadrupole moment (field-independent basis, Debye-Ang):
   XX=            -84.0899   YY=            -35.4935   ZZ=            -35.4926
   XY=              0.0000   XZ=              0.0003   YZ=              0.0000

  Exact polarizability:  86.032  -0.000  41.095   0.002  -0.000  41.097
 Approx polarizability: 105.289  -0.000  50.471   0.006   0.000  50.473

                      1                      2                      3
                      A                      A                      A
 Frequencies --    155.0845               155.2300               222.0913
 Red. masses --      4.3188                 4.3205                14.0894
 Frc consts  --      0.0612                 0.0613                 0.4095
 IR Inten    --     21.8122                21.8092                19.0336

                      4                      5                      6
                      A                      A                      A
 Frequencies --    444.8879               444.9484               489.0839
 Red. masses --      3.4616                 3.4620                 8.4063
 Frc consts  --      0.4037                 0.4038                 1.1847
 IR Inten    --      0.1625                 0.1622                96.7831

                      7                      8                      9
                      A                      A                      A
 Frequencies --   1018.5251              1018.6374              1273.7081
 Red. masses --      1.3882                 1.3881                 1.0954
 Frc consts  --      0.8485                 0.8486                 1.0470
 IR Inten    --      0.4844                 0.4876                 7.2277

                     10                     11                     12
                      A                      A                      A
 Frequencies --   1439.5314              1439.5880              2185.9421
 Red. masses --      1.0507                 1.0508                12.3873
 Frc consts  --      1.2829                 1.2830                34.8743
 IR Inten    --      9.4872                 9.4764                 8.1543

                     13                     14                     15
                      A                      A                      A
 Frequencies --   3115.9572              3230.4202              3230.4810
 Red. masses --      1.0251                 1.1098                 1.1098
 Frc consts  --      5.8643                 6.8234                 6.8238
 IR Inten    --      0.2685                 0.4611                 0.4636

 - Thermochemistry -
 -------------------
 Temperature   298.150 Kelvin.  Pressure   1.00000 Atm.
 Atom     1 has atomic number  6 and mass  12.00000

 Molecular mass:    75.99540 amu.
 Principal axes and moments of inertia in atomic units:
                           1         2         3
     Eigenvalues --    11.531801409.214581409.21640
           X            1.00000   0.00002   0.00000
           Y           -0.00000   0.00867   0.99996
           Z           -0.00002   0.99996  -0.00867
 This molecule is an asymmetric top.
 Rotational symmetry number  1.
 Rotational temperatures (Kelvin)      7.51088     0.06146     0.06146
 Rotational constants (GHZ):         156.50127     1.28067     1.28067
 Zero-point vibrational energy     118813.8 (Joules/Mol)
                                   28.39718 (Kcal/Mol)
 Warning -- explicit consideration of   6 degrees of freedom as
           vibrations may cause significant error
 Vibrational temperatures:    223.13   223.34   319.54   640.09   640.18
          (Kelvin)            703.68  1465.43  1465.59  1832.58  2071.16
                             2071.25  3145.08  4483.17  4647.85  4647.94

 Zero-point correction=                           0.045254 (Hartree/Particle)
 Thermal correction to Energy=                    0.050745
 Thermal correction to Enthalpy=                  0.051689
 Thermal correction to Gibbs Free Energy=         0.016889
 Sum of electronic and zero-point Energies=           -592.998925
 Sum of electronic and thermal Energies=              -592.993434
 Sum of electronic and thermal Enthalpies=            -592.992490
 Sum of electronic and thermal Free Energies=         -593.027290

                     E (Thermal)             CV                S
                      KCal/Mol        Cal/Mol-Kelvin    Cal/Mol-Kelvin
 Total                   31.843             16.648             73.243
 Electronic               0.000              0.000              0.000
 Translational            0.889              2.981             38.900
 Rotational               0.889              2.981             24.641
 Vibrational             30.065             10.687              9.702
 Vibration     1          0.620              1.897              2.609
 Vibration     2          0.620              1.897              2.607
 Vibration     3          0.648              1.807              1.942
 Vibration     4          0.804              1.372              0.811
 Vibration     5          0.804              1.372              0.811
 Vibration     6          0.845              1.274              0.686

 Normal termination of Gaussian 16 at Sun Oct 13 09:49:21 2024.
