 Gaussian 16, Revision B.01,
 Gaussian 16:  ES64L-G16RevB.01 20-Dec-2017

 ---------------------------------------------------------------------
 #p b3lyp 6-31++g(d,p) scf=verytight NoSymm freq=noraman int=ultrafine
 ---------------------------------------------------------------------

 -------------------------
 RxCoord=-3.69918 DE=15.00
 -------------------------
 Symbolic Z-matrix:
 Charge = -1 Multiplicity = 1

                          Input orientation:
 ---------------------------------------------------------------------
 Center     Atomic      Atomic             Coordinates (Angstroms)
 Number     Number       Type             X           Y           Z
 ---------------------------------------------------------------------
      1          6           0        0.512066    0.000005   -0.000237
      2         17           0       -2.263660   -0.000001    0.000101
      3          1           0        0.181221    0.002410   -1.035438
      4          1           0        0.181539    0.895299    0.519637
      5          1           0        0.181524   -0.897694    0.515465
      6          6           0        2.152536    0.000002   -0.000185
      7          7           0        3.330255   -0.000005    0.000133
 ---------------------------------------------------------------------

 SCF Done:  E(RB3LYP) =  -593.042079439     A.U. after   12 cycles

 Alpha  occ. eigenvalues -- -101.25860 -14.22089 -10.11711 -10.09628  -9.17297
 Alpha  occ. eigenvalues --   -6.93074  -6.93074  -6.93053  -0.77684  -0.60270
 Alpha  occ. eigenvalues --   -0.51414  -0.34696  -0.30462  -0.30460  -0.24428
 Alpha  occ. eigenvalues --   -0.20914  -0.20913  -0.05956  -0.05956  -0.05742
 Alpha virt. eigenvalues --    0.10635   0.14627   0.14671   0.14673   0.14997
 Alpha virt. eigenvalues --    0.14997   0.20448   0.20994   0.20994   0.21191
 Alpha virt. eigenvalues --    0.23992   0.23994   0.25172   0.26097   0.26097

 Mulliken charges:
               1
     1  C    0.010985
     2  Cl  -0.872349
     3  H    0.218617
     4  H    0.218616
     5  H    0.218618
     6  C   -0.243683
     7  N   -0.550804
 Sum of Mulliken charges =  -1.00000

 Dipole moment (field-independent basis, Debye):
    X=              4.4318    Y=              0.0000    Z=             -0.0009  Tot=              4.4318
 Quadrupole moment (field-independent basis, Debye-Ang):
   XX=            -84.1661   YY=            -35.4961   ZZ=            -35.4954
   XY=              0.0000   XZ=              0.0003   YZ=              0.0000

  Exact polarizability:  87.011  -0.000  41.066   0.002  -0.000  41.068
 Approx polarizability: 106.302  -0.000  50.463   0.006   0.000  50.465

                      1                      2                      3
                      A                      A                      A
 Frequencies --    158.5030               158.6359               223.9067
 Red. masses --      4.3730                 4.3746                14.2892
 Frc consts  --      0.0647                 0.0649                 0.4221
 IR Inten    --     21.7855                21.7827                18.3601

                      4                      5                      6
                      A                      A                      A
 Frequencies --    439.9807               445.2852               445.3355
 Red. masses --      8.6153                 3.5033                 3.5037
 Frc consts  --      0.9826                 0.4093                 0.4094
 IR Inten    --    117.7767                 0.1178                 0.1175

                      7                      8                      9
                      A                      A                      A
 Frequencies --   1017.5956              1017.6951              1266.5708
 Red. masses --      1.3728                 1.3726                 1.0917
 Frc consts  --      0.8375                 0.8376                 1.0319
 IR Inten    --      0.4002                 0.4027                 4.3929

                     10                     11                     12
                      A                      A                      A
 Frequencies --   1439.1497              1439.1887              2178.7537
 Red. masses --      1.0521                 1.0522                12.3877
 Frc consts  --      1.2839                 1.2840                34.6464
 IR Inten    --      9.2454                 9.2351                 5.8357

                     13                     14                     15
                      A                      A                      A
 Frequencies --   3118.7535              3236.9865              3237.0224
 Red. masses --      1.0243                 1.1105                 1.1105
 Frc consts  --      5.8700                 6.8555                 6.8557
 IR Inten    --      0.1090                 0.4981                 0.5001

 - Thermochemistry -
 -------------------
 Temperature   298.150 Kelvin.  Pressure   1.00000 Atm.
 Atom     1 has atomic number  6 and mass  12.00000

 Molecular mass:    75.99540 amu.
 Principal axes and moments of inertia in atomic units:
                           1         2         3
     Eigenvalues --    11.571821410.411131410.41271
           X            1.00000   0.00002  -0.00000
           Y           -0.00000   0.01185   0.99993
           Z           -0.00002   0.99993  -0.01185
 This molecule is an asymmetric top.
 Rotational symmetry number  1.
 Rotational temperatures (Kelvin)      7.48490     0.06141     0.06141
 Rotational constants (GHZ):         155.95997     1.27959     1.27958
 Zero-point vibrational energy     118570.0 (Joules/Mol)
                                   28.33892 (Kcal/Mol)
 Warning -- explicit consideration of   6 degrees of freedom as
           vibrations may cause significant error
 Vibrational temperatures:    228.05   228.24   322.15   633.03   640.67
          (Kelvin)            640.74  1464.09  1464.24  1822.31  2070.62
                             2070.67  3134.74  4487.19  4657.30  4657.35

 Zero-point correction=                           0.045161 (Hartree/Particle)
 Thermal correction to Energy=                    0.050678
 Thermal correction to Enthalpy=                  0.051622
 Thermal correction to Gibbs Free Energy=         0.016799
 Sum of electronic and zero-point Energies=           -592.996918
 Sum of electronic and thermal Energies=              -592.991402
 Sum of electronic and thermal Enthalpies=            -592.990458
 Sum of electronic and thermal Free Energies=         -593.025280

                     E (Thermal)             CV                S
                      KCal/Mol        Cal/Mol-Kelvin    Cal/Mol-Kelvin
 Total                   31.801             16.751             73.290
 Electronic               0.000              0.000              0.000
 Translational            0.889              2.981             38.900
 Rotational               0.889              2.981             24.646
 Vibrational             30.023             10.789              9.744
 Vibration     1          0.621              1.893              2.568
 Vibration     2          0.621              1.893              2.566
 Vibration     3          0.649              1.805              1.927
 Vibration     4          0.800              1.383              0.827
 Vibration     5          0.805              1.371              0.810
 Vibration     6          0.805              1.371              0.810

 Normal termination of Gaussian 16 at Sun Oct 13 09:49:21 2024.
