 Gaussian 16, Revision B.01,
 Gaussian 16:  ES64L-G16RevB.01 20-Dec-2017

 ---------------------------------------------------------------------
 #p b3lyp 6-31++g(d,p) scf=verytight NoSymm freq=noraman int=ultrafine
 ---------------------------------------------------------------------

 -------------------------
 RxCoord=-3.59920 DE=16.50
 -------------------------
 Symbolic Z-matrix:
 Charge = -1 Multiplicity = 1

                          Input orientation:
 ---------------------------------------------------------------------
 Center     Atomic      Atomic             Coordinates (Angstroms)
 Number     Number       Type             X           Y           Z
 ---------------------------------------------------------------------
      1          6           0        0.499113    0.000005   -0.000241
      2         17           0       -2.262329   -0.000001    0.000104
      3          1           0        0.175513    0.002413   -1.037280
      4          1           0        0.175799    0.896888    0.520523
      5          1           0        0.175784   -0.899288    0.516344
      6          6           0        2.157101    0.000002   -0.000184
      7          7           0        3.335357   -0.000005    0.000136
 ---------------------------------------------------------------------

 SCF Done:  E(RB3LYP) =  -593.039903533     A.U. after   11 cycles

 Alpha  occ. eigenvalues -- -101.25927 -14.22020 -10.11615 -10.09751  -9.17366
 Alpha  occ. eigenvalues --   -6.93141  -6.93141  -6.93124  -0.77554  -0.60068
 Alpha  occ. eigenvalues --   -0.51470  -0.34433  -0.30426  -0.30425  -0.24298
 Alpha  occ. eigenvalues --   -0.20875  -0.20875  -0.06020  -0.06020  -0.05805
 Alpha virt. eigenvalues --    0.10644   0.14636   0.14671   0.14672   0.15067
 Alpha virt. eigenvalues --    0.15067   0.20424   0.21005   0.21005   0.21046
 Alpha virt. eigenvalues --    0.23998   0.24000   0.24957   0.26087   0.26087

 Mulliken charges:
               1
     1  C    0.002213
     2  Cl  -0.868546
     3  H    0.218537
     4  H    0.218538
     5  H    0.218540
     6  C   -0.240452
     7  N   -0.548831
 Sum of Mulliken charges =  -1.00000

 Dipole moment (field-independent basis, Debye):
    X=              4.3361    Y=              0.0000    Z=             -0.0009  Tot=              4.3361
 Quadrupole moment (field-independent basis, Debye-Ang):
   XX=            -84.2489   YY=            -35.4971   ZZ=            -35.4965
   XY=              0.0000   XZ=              0.0003   YZ=              0.0000

  Exact polarizability:  88.090  -0.000  41.032   0.002  -0.000  41.033
 Approx polarizability: 107.439  -0.000  50.449   0.006   0.000  50.450

                      1                      2                      3
                      A                      A                      A
 Frequencies --    161.2604               161.3814               225.5317
 Red. masses --      4.4287                 4.4302                14.5393
 Frc consts  --      0.0679                 0.0680                 0.4357
 IR Inten    --     21.7577                21.7551                17.0104

                      4                      5                      6
                      A                      A                      A
 Frequencies --    388.3101               445.0413               445.0817
 Red. masses --      8.7967                 3.5502                 3.5505
 Frc consts  --      0.7815                 0.4143                 0.4144
 IR Inten    --    142.6540                 0.0787                 0.0785

                      7                      8                      9
                      A                      A                      A
 Frequencies --   1016.5406              1016.6256              1259.2204
 Red. masses --      1.3569                 1.3568                 1.0884
 Frc consts  --      0.8261                 0.8262                 1.0168
 IR Inten    --      0.3254                 0.3272                 2.2192

                     10                     11                     12
                      A                      A                      A
 Frequencies --   1438.6415              1438.6639              2172.5822
 Red. masses --      1.0536                 1.0536                12.3901
 Frc consts  --      1.2848                 1.2849                34.4571
 IR Inten    --      9.0039                 8.9944                 3.9584

                     13                     14                     15
                      A                      A                      A
 Frequencies --   3121.6668              3243.7174              3243.7294
 Red. masses --      1.0235                 1.1112                 1.1112
 Frc consts  --      5.8762                 6.8884                 6.8884
 IR Inten    --      0.0198                 0.5414                 0.5420

 - Thermochemistry -
 -------------------
 Temperature   298.150 Kelvin.  Pressure   1.00000 Atm.
 Atom     1 has atomic number  6 and mass  12.00000

 Molecular mass:    75.99540 amu.
 Principal axes and moments of inertia in atomic units:
                           1         2         3
     Eigenvalues --    11.612701411.639711411.64106
           X            1.00000   0.00002  -0.00000
           Y           -0.00000   0.01572   0.99988
           Z           -0.00002   0.99988  -0.01572
 This molecule is an asymmetric top.
 Rotational symmetry number  1.
 Rotational temperatures (Kelvin)      7.45855     0.06136     0.06136
 Rotational constants (GHZ):         155.41095     1.27847     1.27847
 Zero-point vibrational energy     118298.7 (Joules/Mol)
                                   28.27406 (Kcal/Mol)
 Warning -- explicit consideration of   6 degrees of freedom as
           vibrations may cause significant error
 Vibrational temperatures:    232.02   232.19   324.49   558.69   640.32
          (Kelvin)            640.37  1462.58  1462.70  1811.74  2069.88
                             2069.92  3125.86  4491.38  4666.99  4667.00

 Zero-point correction=                           0.045058 (Hartree/Particle)
 Thermal correction to Energy=                    0.050612
 Thermal correction to Enthalpy=                  0.051556
 Thermal correction to Gibbs Free Energy=         0.016681
 Sum of electronic and zero-point Energies=           -592.994846
 Sum of electronic and thermal Energies=              -592.989292
 Sum of electronic and thermal Enthalpies=            -592.988347
 Sum of electronic and thermal Free Energies=         -593.023223

                     E (Thermal)             CV                S
                      KCal/Mol        Cal/Mol-Kelvin    Cal/Mol-Kelvin
 Total                   31.759             16.862             73.401
 Electronic               0.000              0.000              0.000
 Translational            0.889              2.981             38.900
 Rotational               0.889              2.981             24.652
 Vibrational             29.982             10.900              9.850
 Vibration     1          0.622              1.890              2.535
 Vibration     2          0.622              1.890              2.534
 Vibration     3          0.650              1.802              1.914
 Vibration     4          0.756              1.495              1.007
 Vibration     5          0.804              1.372              0.811
 Vibration     6          0.804              1.372              0.811

 Normal termination of Gaussian 16 at Sun Oct 13 09:49:30 2024.
