 Gaussian 16, Revision B.01,
 Gaussian 16:  ES64L-G16RevB.01 20-Dec-2017

 ---------------------------------------------------------------------
 #p b3lyp 6-31++g(d,p) scf=verytight NoSymm freq=noraman int=ultrafine
 ---------------------------------------------------------------------

 -------------------------
 RxCoord=-3.49922 DE=18.05
 -------------------------
 Symbolic Z-matrix:
 Charge = -1 Multiplicity = 1

                          Input orientation:
 ---------------------------------------------------------------------
 Center     Atomic      Atomic             Coordinates (Angstroms)
 Number     Number       Type             X           Y           Z
 ---------------------------------------------------------------------
      1          6           0        0.486126    0.000006   -0.000244
      2         17           0       -2.261011   -0.000001    0.000105
      3          1           0        0.170086    0.002416   -1.039147
      4          1           0        0.170340    0.898501    0.521427
      5          1           0        0.170325   -0.900904    0.517240
      6          6           0        2.161715    0.000002   -0.000184
      7          7           0        3.340419   -0.000005    0.000138
 ---------------------------------------------------------------------

 SCF Done:  E(RB3LYP) =  -593.037667245     A.U. after   11 cycles

 Alpha  occ. eigenvalues -- -101.26002 -14.21937 -10.11500 -10.09872  -9.17443
 Alpha  occ. eigenvalues --   -6.93216  -6.93216  -6.93204  -0.77417  -0.59878
 Alpha  occ. eigenvalues --   -0.51531  -0.34163  -0.30400  -0.30398  -0.24156
 Alpha  occ. eigenvalues --   -0.20826  -0.20825  -0.06090  -0.06090  -0.05877
 Alpha virt. eigenvalues --    0.10654   0.14646   0.14666   0.14667   0.15151
 Alpha virt. eigenvalues --    0.15151   0.20357   0.20904   0.21019   0.21019
 Alpha virt. eigenvalues --    0.24002   0.24004   0.24724   0.26075   0.26075

 Mulliken charges:
               1
     1  C   -0.007097
     2  Cl  -0.864479
     3  H    0.218474
     4  H    0.218477
     5  H    0.218479
     6  C   -0.236706
     7  N   -0.547148
 Sum of Mulliken charges =  -1.00000

 Dipole moment (field-independent basis, Debye):
    X=              4.2320    Y=              0.0000    Z=             -0.0009  Tot=              4.2320
 Quadrupole moment (field-independent basis, Debye-Ang):
   XX=            -84.3378   YY=            -35.4966   ZZ=            -35.4961
   XY=              0.0000   XZ=              0.0002   YZ=              0.0000

  Exact polarizability:  89.272  -0.000  40.992   0.002   0.000  40.993
 Approx polarizability: 108.707  -0.000  50.428   0.006   0.000  50.429

                      1                      2                      3
                      A                      A                      A
 Frequencies --    163.4443               163.5545               226.8739
 Red. masses --      4.4862                 4.4875                14.9164
 Frc consts  --      0.0706                 0.0707                 0.4524
 IR Inten    --     21.7270                21.7247                13.8570

                      4                      5                      6
                      A                      A                      A
 Frequencies --    332.8836               444.2038               444.2365
 Red. masses --      8.9243                 3.6020                 3.6021
 Frc consts  --      0.5827                 0.4188                 0.4188
 IR Inten    --    172.7245                 0.0462                 0.0461

                      7                      8                      9
                      A                      A                      A
 Frequencies --   1015.3760              1015.4468              1251.6482
 Red. masses --      1.3408                 1.3408                 1.0853
 Frc consts  --      0.8145                 0.8145                 1.0018
 IR Inten    --      0.2596                 0.2610                 0.7628

                     10                     11                     12
                      A                      A                      A
 Frequencies --   1438.0076              1438.0183              2167.3478
 Red. masses --      1.0551                 1.0552                12.3945
 Frc consts  --      1.2855                 1.2856                34.3033
 IR Inten    --      8.7630                 8.7553                 2.4928

                     13                     14                     15
                      A                      A                      A
 Frequencies --   3124.6774              3250.5616              3250.5828
 Red. masses --      1.0226                 1.1119                 1.1119
 Frc consts  --      5.8827                 6.9218                 6.9219
 IR Inten    --      0.0023                 0.5908                 0.5900

 - Thermochemistry -
 -------------------
 Temperature   298.150 Kelvin.  Pressure   1.00000 Atm.
 Atom     1 has atomic number  6 and mass  12.00000

 Molecular mass:    75.99540 amu.
 Principal axes and moments of inertia in atomic units:
                           1         2         3
     Eigenvalues --    11.654271412.891221412.89235
           X            1.00000   0.00002  -0.00000
           Y           -0.00000   0.02702   0.99963
           Z           -0.00002   0.99963  -0.02702
 This molecule is an asymmetric top.
 Rotational symmetry number  1.
 Rotational temperatures (Kelvin)      7.43195     0.06130     0.06130
 Rotational constants (GHZ):         154.85664     1.27734     1.27734
 Zero-point vibrational energy     117992.8 (Joules/Mol)
                                   28.20097 (Kcal/Mol)
 Warning -- explicit consideration of   6 degrees of freedom as
           vibrations may cause significant error
 Vibrational temperatures:    235.16   235.32   326.42   478.95   639.11
          (Kelvin)            639.16  1460.90  1461.00  1800.84  2068.97
                             2068.99  3118.33  4495.71  4676.83  4676.86

 Zero-point correction=                           0.044941 (Hartree/Particle)
 Thermal correction to Energy=                    0.050548
 Thermal correction to Enthalpy=                  0.051492
 Thermal correction to Gibbs Free Energy=         0.016527
 Sum of electronic and zero-point Energies=           -592.992726
 Sum of electronic and thermal Energies=              -592.987119
 Sum of electronic and thermal Enthalpies=            -592.986175
 Sum of electronic and thermal Free Energies=         -593.021141

                     E (Thermal)             CV                S
                      KCal/Mol        Cal/Mol-Kelvin    Cal/Mol-Kelvin
 Total                   31.719             16.980             73.591
 Electronic               0.000              0.000              0.000
 Translational            0.889              2.981             38.900
 Rotational               0.889              2.981             24.657
 Vibrational             29.942             11.019             10.035
 Vibration     1          0.623              1.887              2.510
 Vibration     2          0.623              1.887              2.508
 Vibration     3          0.651              1.800              1.904
 Vibration     4          0.715              1.610              1.246
 Vibration     5          0.804              1.374              0.813
 Vibration     6          0.804              1.374              0.813

 Normal termination of Gaussian 16 at Sun Oct 13 09:49:32 2024.
