 Gaussian 16, Revision B.01,
 Gaussian 16:  ES64L-G16RevB.01 20-Dec-2017

 ---------------------------------------------------------------------
 #p b3lyp 6-31++g(d,p) scf=verytight NoSymm freq=noraman int=ultrafine
 ---------------------------------------------------------------------

 -------------------------
 RxCoord=-3.39924 DE=19.64
 -------------------------
 Symbolic Z-matrix:
 Charge = -1 Multiplicity = 1

                          Input orientation:
 ---------------------------------------------------------------------
 Center     Atomic      Atomic             Coordinates (Angstroms)
 Number     Number       Type             X           Y           Z
 ---------------------------------------------------------------------
      1          6           0        0.473103    0.000006   -0.000246
      2         17           0       -2.259701   -0.000001    0.000107
      3          1           0        0.164929    0.002420   -1.041030
      4          1           0        0.165151    0.900130    0.522344
      5          1           0        0.165136   -0.902537    0.518149
      6          6           0        2.166366    0.000002   -0.000184
      7          7           0        3.345438   -0.000005    0.000140
 ---------------------------------------------------------------------

 SCF Done:  E(RB3LYP) =  -593.035385684     A.U. after   12 cycles

 Alpha  occ. eigenvalues -- -101.26085 -14.21839 -10.11367 -10.09992  -9.17528
 Alpha  occ. eigenvalues --   -6.93300  -6.93300  -6.93293  -0.77273  -0.59700
 Alpha  occ. eigenvalues --   -0.51598  -0.33887  -0.30382  -0.30381  -0.24002
 Alpha  occ. eigenvalues --   -0.20764  -0.20764  -0.06166  -0.06166  -0.05956
 Alpha virt. eigenvalues --    0.10665   0.14657   0.14662   0.14663   0.15246
 Alpha virt. eigenvalues --    0.15246   0.20216   0.20795   0.21035   0.21035
 Alpha virt. eigenvalues --    0.24004   0.24006   0.24496   0.26061   0.26061

 Mulliken charges:
               1
     1  C   -0.016891
     2  Cl  -0.860130
     3  H    0.218426
     4  H    0.218431
     5  H    0.218433
     6  C   -0.232518
     7  N   -0.545750
 Sum of Mulliken charges =  -1.00000

 Dipole moment (field-independent basis, Debye):
    X=              4.1189    Y=              0.0000    Z=             -0.0010  Tot=              4.1189
 Quadrupole moment (field-independent basis, Debye-Ang):
   XX=            -84.4323   YY=            -35.4945   ZZ=            -35.4941
   XY=              0.0000   XZ=              0.0002   YZ=              0.0000

  Exact polarizability:  90.557  -0.000  40.947   0.002   0.000  40.948
 Approx polarizability: 110.113  -0.000  50.401   0.006   0.000  50.402

                      1                      2                      3
                      A                      A                      A
 Frequencies --    165.1318               165.2326               227.2084
 Red. masses --      4.5454                 4.5466                15.8735
 Frc consts  --      0.0730                 0.0731                 0.4828
 IR Inten    --     21.6916                21.6895                 3.6134

                      4                      5                      6
                      A                      A                      A
 Frequencies --    271.9024               442.8202               442.8488
 Red. masses --      8.8552                 3.6585                 3.6586
 Frc consts  --      0.3857                 0.4227                 0.4227
 IR Inten    --    213.4047                 0.0214                 0.0213

                      7                      8                      9
                      A                      A                      A
 Frequencies --   1014.1146              1014.1742              1243.8452
 Red. masses --      1.3246                 1.3245                 1.0825
 Frc consts  --      0.8026                 0.8027                 0.9867
 IR Inten    --      0.2027                 0.2037                 0.0629

                     10                     11                     12
                      A                      A                      A
 Frequencies --   1437.2498              1437.2549              2162.9579
 Red. masses --      1.0568                 1.0568                12.4006
 Frc consts  --      1.2862                 1.2862                34.1814
 IR Inten    --      8.5218                 8.5200                 1.4051

                     13                     14                     15
                      A                      A                      A
 Frequencies --   3127.7792              3257.5197              3257.5429
 Red. masses --      1.0218                 1.1126                 1.1126
 Frc consts  --      5.8896                 6.9558                 6.9559
 IR Inten    --      0.0548                 0.6457                 0.6451

 - Thermochemistry -
 -------------------
 Temperature   298.150 Kelvin.  Pressure   1.00000 Atm.
 Atom     1 has atomic number  6 and mass  12.00000

 Molecular mass:    75.99540 amu.
 Principal axes and moments of inertia in atomic units:
                           1         2         3
     Eigenvalues --    11.696341414.159401414.16032
           X            1.00000   0.00002  -0.00000
           Y           -0.00000   0.03747   0.99930
           Z           -0.00002   0.99930  -0.03747
 This molecule is an asymmetric top.
 Rotational symmetry number  1.
 Rotational temperatures (Kelvin)      7.40521     0.06125     0.06125
 Rotational constants (GHZ):         154.29959     1.27619     1.27619
 Zero-point vibrational energy     117638.3 (Joules/Mol)
                                   28.11622 (Kcal/Mol)
 Warning -- explicit consideration of   6 degrees of freedom as
           vibrations may cause significant error
 Vibrational temperatures:    237.59   237.73   326.90   391.21   637.12
          (Kelvin)            637.16  1459.08  1459.17  1789.62  2067.88
                             2067.89  3112.01  4500.18  4686.84  4686.88

 Zero-point correction=                           0.044806 (Hartree/Particle)
 Thermal correction to Energy=                    0.050486
 Thermal correction to Enthalpy=                  0.051430
 Thermal correction to Gibbs Free Energy=         0.016316
 Sum of electronic and zero-point Energies=           -592.990580
 Sum of electronic and thermal Energies=              -592.984900
 Sum of electronic and thermal Enthalpies=            -592.983956
 Sum of electronic and thermal Free Energies=         -593.019070

                     E (Thermal)             CV                S
                      KCal/Mol        Cal/Mol-Kelvin    Cal/Mol-Kelvin
 Total                   31.680             17.105             73.904
 Electronic               0.000              0.000              0.000
 Translational            0.889              2.981             38.900
 Rotational               0.889              2.981             24.662
 Vibrational             29.903             11.143             10.342
 Vibration     1          0.624              1.885              2.490
 Vibration     2          0.624              1.885              2.489
 Vibration     3          0.651              1.800              1.901
 Vibration     4          0.675              1.725              1.584
 Vibration     5          0.802              1.377              0.818
 Vibration     6          0.802              1.377              0.818

 Normal termination of Gaussian 16 at Sun Oct 13 09:49:32 2024.
