 Gaussian 16, Revision B.01,
 Gaussian 16:  ES64L-G16RevB.01 20-Dec-2017

 ---------------------------------------------------------------------
 #p b3lyp 6-31++g(d,p) scf=verytight NoSymm freq=noraman int=ultrafine
 ---------------------------------------------------------------------

 -------------------------
 RxCoord=-3.29926 DE=21.26
 -------------------------
 Symbolic Z-matrix:
 Charge = -1 Multiplicity = 1

                          Input orientation:
 ---------------------------------------------------------------------
 Center     Atomic      Atomic             Coordinates (Angstroms)
 Number     Number       Type             X           Y           Z
 ---------------------------------------------------------------------
      1          6           0        0.460045    0.000006   -0.000246
      2         17           0       -2.258392   -0.000001    0.000108
      3          1           0        0.160031    0.002424   -1.042923
      4          1           0        0.160223    0.901769    0.523270
      5          1           0        0.160209   -0.904180    0.519068
      6          6           0        2.171045    0.000002   -0.000185
      7          7           0        3.350413   -0.000005    0.000142
 ---------------------------------------------------------------------

 SCF Done:  E(RB3LYP) =  -593.033073097     A.U. after   12 cycles

 Alpha  occ. eigenvalues -- -101.26178 -14.21727 -10.11216 -10.10108  -9.17623
 Alpha  occ. eigenvalues --   -6.93392  -6.93392  -6.93391  -0.77121  -0.59536
 Alpha  occ. eigenvalues --   -0.51671  -0.33605  -0.30373  -0.30372  -0.23835
 Alpha  occ. eigenvalues --   -0.20690  -0.20690  -0.06250  -0.06250  -0.06044
 Alpha virt. eigenvalues --    0.10676   0.14658   0.14659   0.14669   0.15350
 Alpha virt. eigenvalues --    0.15350   0.19992   0.20730   0.21055   0.21055
 Alpha virt. eigenvalues --    0.24004   0.24005   0.24290   0.26046   0.26046

 Mulliken charges:
               1
     1  C   -0.027123
     2  Cl  -0.855488
     3  H    0.218394
     4  H    0.218400
     5  H    0.218402
     6  C   -0.227950
     7  N   -0.544633
 Sum of Mulliken charges =  -1.00000

 Dipole moment (field-independent basis, Debye):
    X=              3.9966    Y=              0.0000    Z=             -0.0010  Tot=              3.9966
 Quadrupole moment (field-independent basis, Debye-Ang):
   XX=            -84.5318   YY=            -35.4909   ZZ=            -35.4906
   XY=              0.0000   XZ=              0.0002   YZ=              0.0000

  Exact polarizability:  91.943  -0.000  40.896   0.002   0.000  40.897
 Approx polarizability: 111.659  -0.000  50.367   0.006   0.000  50.368

                      1                      2                      3
                      A                      A                      A
 Frequencies --    166.3868               166.4787               192.8826
 Red. masses --      4.6065                 4.6076                10.7344
 Frc consts  --      0.0751                 0.0752                 0.2353
 IR Inten    --     21.6492                21.6473               180.3698

                      4                      5                      6
                      A                      A                      A
 Frequencies --    232.7535               440.9377               440.9629
 Red. masses --     12.5366                 3.7196                 3.7196
 Frc consts  --      0.4001                 0.4261                 0.4261
 IR Inten    --     70.6657                 0.0055                 0.0055

                      7                      8                      9
                      A                      A                      A
 Frequencies --   1012.7761              1012.8247              1235.8108
 Red. masses --      1.3083                 1.3082                 1.0798
 Frc consts  --      0.7906                 0.7907                 0.9717
 IR Inten    --      0.1543                 0.1549                 0.1402

                     10                     11                     12
                      A                      A                      A
 Frequencies --   1436.3724              1436.3800              2159.3274
 Red. masses --      1.0584                 1.0584                12.4084
 Frc consts  --      1.2866                 1.2866                34.0881
 IR Inten    --      8.2820                 8.2879                 0.6575

                     13                     14                     15
                      A                      A                      A
 Frequencies --   3130.9519              3264.5492              3264.5818
 Red. masses --      1.0210                 1.1132                 1.1132
 Frc consts  --      5.8968                 6.9901                 6.9902
 IR Inten    --      0.1726                 0.7069                 0.7066

 - Thermochemistry -
 -------------------
 Temperature   298.150 Kelvin.  Pressure   1.00000 Atm.
 Atom     1 has atomic number  6 and mass  12.00000

 Molecular mass:    75.99540 amu.
 Principal axes and moments of inertia in atomic units:
                           1         2         3
     Eigenvalues --    11.738771415.438221415.43894
           X            1.00000   0.00002  -0.00000
           Y           -0.00000   0.04860   0.99882
           Z           -0.00002   0.99882  -0.04860
 This molecule is an asymmetric top.
 Rotational symmetry number  1.
 Rotational temperatures (Kelvin)      7.37845     0.06119     0.06119
 Rotational constants (GHZ):         153.74193     1.27504     1.27504
 Zero-point vibrational energy     117198.0 (Joules/Mol)
                                   28.01100 (Kcal/Mol)
 Warning -- explicit consideration of   6 degrees of freedom as
           vibrations may cause significant error
 Vibrational temperatures:    239.39   239.53   277.52   334.88   634.41
          (Kelvin)            634.45  1457.16  1457.23  1778.06  2066.62
                             2066.63  3106.79  4504.74  4696.96  4697.01

 Zero-point correction=                           0.044638 (Hartree/Particle)
 Thermal correction to Energy=                    0.050425
 Thermal correction to Enthalpy=                  0.051370
 Thermal correction to Gibbs Free Energy=         0.015988
 Sum of electronic and zero-point Energies=           -592.988435
 Sum of electronic and thermal Energies=              -592.982648
 Sum of electronic and thermal Enthalpies=            -592.981703
 Sum of electronic and thermal Free Energies=         -593.017085

                     E (Thermal)             CV                S
                      KCal/Mol        Cal/Mol-Kelvin    Cal/Mol-Kelvin
 Total                   31.642             17.234             74.468
 Electronic               0.000              0.000              0.000
 Translational            0.889              2.981             38.900
 Rotational               0.889              2.981             24.668
 Vibrational             29.865             11.273             10.900
 Vibration     1          0.624              1.884              2.476
 Vibration     2          0.624              1.884              2.475
 Vibration     3          0.635              1.850              2.200
 Vibration     4          0.654              1.791              1.858
 Vibration     5          0.801              1.381              0.824
 Vibration     6          0.801              1.381              0.824

 Normal termination of Gaussian 16 at Sun Oct 13 09:49:35 2024.
