 Gaussian 16, Revision B.01,
 Gaussian 16:  ES64L-G16RevB.01 20-Dec-2017

 ---------------------------------------------------------------------
 #p b3lyp 6-31++g(d,p) scf=verytight NoSymm freq=noraman int=ultrafine
 ---------------------------------------------------------------------

 -------------------------
 RxCoord=-3.19928 DE=22.89
 -------------------------
 Symbolic Z-matrix:
 Charge = -1 Multiplicity = 1

                          Input orientation:
 ---------------------------------------------------------------------
 Center     Atomic      Atomic             Coordinates (Angstroms)
 Number     Number       Type             X           Y           Z
 ---------------------------------------------------------------------
      1          6           0        0.446951    0.000006   -0.000246
      2         17           0       -2.257081   -0.000001    0.000108
      3          1           0        0.155387    0.002428   -1.044822
      4          1           0        0.155550    0.903414    0.524203
      5          1           0        0.155536   -0.905829    0.519993
      6          6           0        2.175742    0.000002   -0.000186
      7          7           0        3.355341   -0.000005    0.000144
 ---------------------------------------------------------------------

 SCF Done:  E(RB3LYP) =  -593.030742823     A.U. after   12 cycles

 Alpha  occ. eigenvalues -- -101.26279 -14.21601 -10.11048 -10.10222  -9.17726
 Alpha  occ. eigenvalues --   -6.93499  -6.93493  -6.93493  -0.76962  -0.59384
 Alpha  occ. eigenvalues --   -0.51749  -0.33316  -0.30371  -0.30370  -0.23657
 Alpha  occ. eigenvalues --   -0.20604  -0.20604  -0.06341  -0.06341  -0.06140
 Alpha virt. eigenvalues --    0.10688   0.14656   0.14657   0.14682   0.15462
 Alpha virt. eigenvalues --    0.15463   0.19704   0.20693   0.21077   0.21077
 Alpha virt. eigenvalues --    0.24002   0.24003   0.24114   0.26029   0.26029

 Mulliken charges:
               1
     1  C   -0.037749
     2  Cl  -0.850540
     3  H    0.218375
     4  H    0.218382
     5  H    0.218384
     6  C   -0.223060
     7  N   -0.543792
 Sum of Mulliken charges =  -1.00000

 Dipole moment (field-independent basis, Debye):
    X=              3.8649    Y=              0.0000    Z=             -0.0010  Tot=              3.8649
 Quadrupole moment (field-independent basis, Debye-Ang):
   XX=            -84.6358   YY=            -35.4860   ZZ=            -35.4858
   XY=              0.0000   XZ=              0.0002   YZ=              0.0000

  Exact polarizability:  93.426  -0.000  40.840   0.002   0.000  40.841
 Approx polarizability: 113.347  -0.000  50.327   0.006   0.000  50.327

                      1                      2                      3
                      A                      A                      A
 Frequencies --     75.2575               167.2609               167.3448
 Red. masses --     10.0631                 4.6695                 4.6706
 Frc consts  --      0.0336                 0.0770                 0.0771
 IR Inten    --    251.2394                21.5974                21.5958

                      4                      5                      6
                      A                      A                      A
 Frequencies --    232.3591               438.5967               438.6209
 Red. masses --     14.1457                 3.7852                 3.7852
 Frc consts  --      0.4500                 0.4290                 0.4291
 IR Inten    --     37.3790                 0.0000                 0.0000

                      7                      8                      9
                      A                      A                      A
 Frequencies --   1011.3828              1011.4229              1227.5498
 Red. masses --      1.2920                 1.2919                 1.0773
 Frc consts  --      0.7787                 0.7787                 0.9565
 IR Inten    --      0.1137                 0.1142                 0.9963

                     10                     11                     12
                      A                      A                      A
 Frequencies --   1435.3873              1435.3976              2156.3805
 Red. masses --      1.0602                 1.0602                12.4176
 Frc consts  --      1.2870                 1.2870                34.0204
 IR Inten    --      8.0489                 8.0547                 0.2090

                     13                     14                     15
                      A                      A                      A
 Frequencies --   3134.1671              3271.6168              3271.6494
 Red. masses --      1.0202                 1.1139                 1.1139
 Frc consts  --      5.9042                 7.0247                 7.0248
 IR Inten    --      0.3488                 0.7745                 0.7746

 - Thermochemistry -
 -------------------
 Temperature   298.150 Kelvin.  Pressure   1.00000 Atm.
 Atom     1 has atomic number  6 and mass  12.00000

 Molecular mass:    75.99540 amu.
 Principal axes and moments of inertia in atomic units:
                           1         2         3
     Eigenvalues --    11.781441416.723001416.72353
           X            1.00000   0.00002  -0.00000
           Y           -0.00000   0.07226   0.99739
           Z           -0.00002   0.99739  -0.07226
 This molecule is an asymmetric top.
 Rotational symmetry number  1.
 Rotational temperatures (Kelvin)      7.35172     0.06114     0.06114
 Rotational constants (GHZ):         153.18505     1.27388     1.27388
 Zero-point vibrational energy     116482.7 (Joules/Mol)
                                   27.84004 (Kcal/Mol)
 Warning -- explicit consideration of   6 degrees of freedom as
           vibrations may cause significant error
 Vibrational temperatures:    108.28   240.65   240.77   334.31   631.04
          (Kelvin)            631.08  1455.15  1455.21  1766.17  2065.20
                             2065.22  3102.55  4509.37  4707.13  4707.17

 Zero-point correction=                           0.044366 (Hartree/Particle)
 Thermal correction to Energy=                    0.050367
 Thermal correction to Enthalpy=                  0.051311
 Thermal correction to Gibbs Free Energy=         0.015066
 Sum of electronic and zero-point Energies=           -592.986377
 Sum of electronic and thermal Energies=              -592.980376
 Sum of electronic and thermal Enthalpies=            -592.979432
 Sum of electronic and thermal Free Energies=         -593.015677

                     E (Thermal)             CV                S
                      KCal/Mol        Cal/Mol-Kelvin    Cal/Mol-Kelvin
 Total                   31.606             17.368             76.285
 Electronic               0.000              0.000              0.000
 Translational            0.889              2.981             38.900
 Rotational               0.889              2.981             24.673
 Vibrational             29.828             11.406             12.712
 Vibration     1          0.599              1.966              4.011
 Vibration     2          0.624              1.883              2.466
 Vibration     3          0.624              1.883              2.465
 Vibration     4          0.653              1.791              1.861
 Vibration     5          0.799              1.386              0.831
 Vibration     6          0.799              1.386              0.831

 Normal termination of Gaussian 16 at Sun Oct 13 09:49:35 2024.
