 Gaussian 16, Revision B.01,
 Gaussian 16:  ES64L-G16RevB.01 20-Dec-2017

 ---------------------------------------------------------------------
 #p b3lyp 6-31++g(d,p) scf=verytight NoSymm freq=noraman int=ultrafine
 ---------------------------------------------------------------------

 -------------------------
 RxCoord=-3.09930 DE=24.54
 -------------------------
 Symbolic Z-matrix:
 Charge = -1 Multiplicity = 1

                          Input orientation:
 ---------------------------------------------------------------------
 Center     Atomic      Atomic             Coordinates (Angstroms)
 Number     Number       Type             X           Y           Z
 ---------------------------------------------------------------------
      1          6           0        0.433820    0.000006   -0.000245
      2         17           0       -2.255763   -0.000001    0.000109
      3          1           0        0.150989    0.002433   -1.046719
      4          1           0        0.151126    0.905058    0.525137
      5          1           0        0.151112   -0.907477    0.520920
      6          6           0        2.180451    0.000002   -0.000187
      7          7           0        3.360222   -0.000006    0.000146
 ---------------------------------------------------------------------

 SCF Done:  E(RB3LYP) =  -593.028406911     A.U. after   12 cycles

 Alpha  occ. eigenvalues -- -101.26391 -14.21461 -10.10862 -10.10332  -9.17840
 Alpha  occ. eigenvalues --   -6.93618  -6.93604  -6.93604  -0.76794  -0.59246
 Alpha  occ. eigenvalues --   -0.51833  -0.33021  -0.30376  -0.30376  -0.23467
 Alpha  occ. eigenvalues --   -0.20506  -0.20505  -0.06440  -0.06440  -0.06244
 Alpha virt. eigenvalues --    0.10700   0.14656   0.14657   0.14696   0.15583
 Alpha virt. eigenvalues --    0.15583   0.19375   0.20667   0.21103   0.21103
 Alpha virt. eigenvalues --    0.23970   0.23999   0.23999   0.26011   0.26011

 Mulliken charges:
               1
     1  C   -0.048734
     2  Cl  -0.845275
     3  H    0.218367
     4  H    0.218376
     5  H    0.218378
     6  C   -0.217894
     7  N   -0.543219
 Sum of Mulliken charges =  -1.00000

 Dipole moment (field-independent basis, Debye):
    X=              3.7235    Y=              0.0000    Z=             -0.0010  Tot=              3.7235
 Quadrupole moment (field-independent basis, Debye-Ang):
   XX=            -84.7438   YY=            -35.4797   ZZ=            -35.4796
   XY=              0.0000   XZ=              0.0001   YZ=              0.0000

  Exact polarizability:  94.998  -0.000  40.778   0.002   0.000  40.779
 Approx polarizability: 115.176  -0.000  50.281   0.006   0.000  50.281

 ******    1 imaginary frequencies (negative Signs) ******

                      1                      2                      3
                      A                      A                      A
 Frequencies --   -155.1356               167.7959               167.8722
 Red. masses --     10.1106                 4.7346                 4.7356
 Frc consts  --      0.1434                 0.0785                 0.0786
 IR Inten    --    297.6546                21.5340                21.5325

                      4                      5                      6
                      A                      A                      A
 Frequencies --    233.1319               435.8307               435.8539
 Red. masses --     14.6142                 3.8551                 3.8550
 Frc consts  --      0.4680                 0.4314                 0.4315
 IR Inten    --     32.0158                 0.0064                 0.0064

                      7                      8                      9
                      A                      A                      A
 Frequencies --   1009.9479              1009.9799              1219.0621
 Red. masses --      1.2758                 1.2757                 1.0750
 Frc consts  --      0.7667                 0.7667                 0.9413
 IR Inten    --      0.0806                 0.0809                 2.6136

                     10                     11                     12
                      A                      A                      A
 Frequencies --   1434.2980              1434.3113              2154.0510
 Red. masses --      1.0620                 1.0620                12.4280
 Frc consts  --      1.2872                 1.2872                33.9754
 IR Inten    --      7.8190                 7.8244                 0.0159

                     13                     14                     15
                      A                      A                      A
 Frequencies --   3137.4285              3278.7054              3278.7471
 Red. masses --      1.0194                 1.1146                 1.1146
 Frc consts  --      5.9119                 7.0593                 7.0595
 IR Inten    --      0.5737                 0.8485                 0.8491

 - Thermochemistry -
 -------------------
 Temperature   298.150 Kelvin.  Pressure   1.00000 Atm.
 Atom     1 has atomic number  6 and mass  12.00000

 Molecular mass:    75.99540 amu.
 Principal axes and moments of inertia in atomic units:
                           1         2         3
     Eigenvalues --    11.824181418.009651418.01002
           X            1.00000   0.00002  -0.00000
           Y           -0.00000   0.09826   0.99516
           Z           -0.00002   0.99516  -0.09826
 This molecule is an asymmetric top.
 Rotational symmetry number  1.
 Rotational temperatures (Kelvin)      7.32515     0.06108     0.06108
 Rotational constants (GHZ):         152.63140     1.27273     1.27273
    1 imaginary frequencies ignored.
 Zero-point vibrational energy     116019.9 (Joules/Mol)
                                   27.72943 (Kcal/Mol)
 Warning -- explicit consideration of   5 degrees of freedom as
           vibrations may cause significant error
 Vibrational temperatures:    241.42   241.53   335.42   627.06   627.10
          (Kelvin)           1453.09  1453.14  1753.96  2063.63  2063.65
                             3099.20  4514.06  4717.33  4717.39

 Zero-point correction=                           0.044190 (Hartree/Particle)
 Thermal correction to Energy=                    0.049410
 Thermal correction to Enthalpy=                  0.050355
 Thermal correction to Gibbs Free Energy=         0.016011
 Sum of electronic and zero-point Energies=           -592.984217
 Sum of electronic and thermal Energies=              -592.978996
 Sum of electronic and thermal Enthalpies=            -592.978052
 Sum of electronic and thermal Free Energies=         -593.012396

                     E (Thermal)             CV                S
                      KCal/Mol        Cal/Mol-Kelvin    Cal/Mol-Kelvin
 Total                   31.006             15.421             72.281
 Electronic               0.000              0.000              0.000
 Translational            0.889              2.981             38.900
 Rotational               0.889              2.981             24.678
 Vibrational             29.228              9.459              8.703
 Vibration     1          0.625              1.882              2.460
 Vibration     2          0.625              1.882              2.459
 Vibration     3          0.654              1.790              1.855
 Vibration     4          0.796              1.392              0.840
 Vibration     5          0.796              1.392              0.840

 Normal termination of Gaussian 16 at Sun Oct 13 09:49:34 2024.
