 Gaussian 16, Revision B.01,
 Gaussian 16:  ES64L-G16RevB.01 20-Dec-2017

 ---------------------------------------------------------------------
 #p b3lyp 6-31++g(d,p) scf=verytight NoSymm freq=noraman int=ultrafine
 ---------------------------------------------------------------------

 -------------------------
 RxCoord=-2.99932 DE=26.19
 -------------------------
 Symbolic Z-matrix:
 Charge = -1 Multiplicity = 1

                          Input orientation:
 ---------------------------------------------------------------------
 Center     Atomic      Atomic             Coordinates (Angstroms)
 Number     Number       Type             X           Y           Z
 ---------------------------------------------------------------------
      1          6           0        0.420652    0.000006   -0.000244
      2         17           0       -2.254436   -0.000001    0.000109
      3          1           0        0.146833    0.002437   -1.048608
      4          1           0        0.146946    0.906696    0.526071
      5          1           0        0.146932   -0.909119    0.521846
      6          6           0        2.185163    0.000002   -0.000189
      7          7           0        3.365054   -0.000006    0.000149
 ---------------------------------------------------------------------

 SCF Done:  E(RB3LYP) =  -593.026076991     A.U. after   12 cycles

 Alpha  occ. eigenvalues -- -101.26513 -14.21308 -10.10659 -10.10439  -9.17963
 Alpha  occ. eigenvalues --   -6.93746  -6.93724  -6.93724  -0.76619  -0.59120
 Alpha  occ. eigenvalues --   -0.51923  -0.32721  -0.30388  -0.30388  -0.23266
 Alpha  occ. eigenvalues --   -0.20394  -0.20394  -0.06547  -0.06547  -0.06358
 Alpha virt. eigenvalues --    0.10713   0.14657   0.14658   0.14711   0.15711
 Alpha virt. eigenvalues --    0.15711   0.19022   0.20646   0.21133   0.21133
 Alpha virt. eigenvalues --    0.23859   0.23993   0.23993   0.25991   0.25991

 Mulliken charges:
               1
     1  C   -0.060039
     2  Cl  -0.839688
     3  H    0.218370
     4  H    0.218379
     5  H    0.218381
     6  C   -0.212498
     7  N   -0.542905
 Sum of Mulliken charges =  -1.00000

 Dipole moment (field-independent basis, Debye):
    X=              3.5723    Y=              0.0000    Z=             -0.0010  Tot=              3.5723
 Quadrupole moment (field-independent basis, Debye-Ang):
   XX=            -84.8553   YY=            -35.4722   ZZ=            -35.4722
   XY=              0.0000   XZ=              0.0001   YZ=              0.0000

  Exact polarizability:  96.649  -0.000  40.712   0.001   0.000  40.713
 Approx polarizability: 117.141  -0.000  50.228   0.006   0.000  50.228

 ******    1 imaginary frequencies (negative Signs) ******

                      1                      2                      3
                      A                      A                      A
 Frequencies --   -227.0317               168.0307               168.1001
 Red. masses --     10.2355                 4.8018                 4.8027
 Frc consts  --      0.3108                 0.0799                 0.0800
 IR Inten    --    344.0074                21.4563                21.4551

                      4                      5                      6
                      A                      A                      A
 Frequencies --    233.9493               432.6772               432.7007
 Red. masses --     14.9227                 3.9292                 3.9290
 Frc consts  --      0.4812                 0.4334                 0.4334
 IR Inten    --     29.9855                 0.0263                 0.0264

                      7                      8                      9
                      A                      A                      A
 Frequencies --   1008.4917              1008.5177              1210.3601
 Red. masses --      1.2598                 1.2597                 1.0728
 Frc consts  --      0.7549                 0.7549                 0.9259
 IR Inten    --      0.0542                 0.0544                 4.9551

                     10                     11                     12
                      A                      A                      A
 Frequencies --   1433.1141              1433.1272              2152.2696
 Red. masses --      1.0638                 1.0638                12.4395
 Frc consts  --      1.2873                 1.2873                33.9505
 IR Inten    --      7.5929                 7.5974                 0.0327

                     13                     14                     15
                      A                      A                      A
 Frequencies --   3140.7165              3285.7910              3285.8337
 Red. masses --      1.0186                 1.1152                 1.1152
 Frc consts  --      5.9197                 7.0940                 7.0942
 IR Inten    --      0.8363                 0.9288                 0.9299

 - Thermochemistry -
 -------------------
 Temperature   298.150 Kelvin.  Pressure   1.00000 Atm.
 Atom     1 has atomic number  6 and mass  12.00000

 Molecular mass:    75.99540 amu.
 Principal axes and moments of inertia in atomic units:
                           1         2         3
     Eigenvalues --    11.866851419.294621419.29483
           X            1.00000   0.00002  -0.00000
           Y           -0.00000   0.19178   0.98144
           Z           -0.00002   0.98144  -0.19178
 This molecule is an asymmetric top.
 Rotational symmetry number  1.
 Rotational temperatures (Kelvin)      7.29881     0.06103     0.06103
 Rotational constants (GHZ):         152.08258     1.27158     1.27158
    1 imaginary frequencies ignored.
 Zero-point vibrational energy     116000.0 (Joules/Mol)
                                   27.72466 (Kcal/Mol)
 Warning -- explicit consideration of   5 degrees of freedom as
           vibrations may cause significant error
 Vibrational temperatures:    241.76   241.86   336.60   622.53   622.56
          (Kelvin)           1450.99  1451.03  1741.44  2061.93  2061.95
                             3096.64  4518.79  4727.52  4727.58

 Zero-point correction=                           0.044182 (Hartree/Particle)
 Thermal correction to Energy=                    0.049407
 Thermal correction to Enthalpy=                  0.050352
 Thermal correction to Gibbs Free Energy=         0.016000
 Sum of electronic and zero-point Energies=           -592.981895
 Sum of electronic and thermal Energies=              -592.976670
 Sum of electronic and thermal Enthalpies=            -592.975725
 Sum of electronic and thermal Free Energies=         -593.010077

                     E (Thermal)             CV                S
                      KCal/Mol        Cal/Mol-Kelvin    Cal/Mol-Kelvin
 Total                   31.004             15.442             72.298
 Electronic               0.000              0.000              0.000
 Translational            0.889              2.981             38.900
 Rotational               0.889              2.981             24.684
 Vibrational             29.226              9.480              8.715
 Vibration     1          0.625              1.882              2.457
 Vibration     2          0.625              1.882              2.457
 Vibration     3          0.654              1.789              1.848
 Vibration     4          0.794              1.399              0.850
 Vibration     5          0.794              1.399              0.850

 Normal termination of Gaussian 16 at Sun Oct 13 09:49:42 2024.
