 Gaussian 16, Revision B.01,
 Gaussian 16:  ES64L-G16RevB.01 20-Dec-2017

 ---------------------------------------------------------------------
 #p b3lyp 6-31++g(d,p) scf=verytight NoSymm freq=noraman int=ultrafine
 ---------------------------------------------------------------------

 -------------------------
 RxCoord=-2.89934 DE=27.83
 -------------------------
 Symbolic Z-matrix:
 Charge = -1 Multiplicity = 1

                          Input orientation:
 ---------------------------------------------------------------------
 Center     Atomic      Atomic             Coordinates (Angstroms)
 Number     Number       Type             X           Y           Z
 ---------------------------------------------------------------------
      1          6           0        0.407448    0.000007   -0.000243
      2         17           0       -2.253097   -0.000001    0.000109
      3          1           0        0.142915    0.002442   -1.050485
      4          1           0        0.143006    0.908323    0.527000
      5          1           0        0.142992   -0.910750    0.522767
      6          6           0        2.189873    0.000003   -0.000191
      7          7           0        3.369838   -0.000006    0.000151
 ---------------------------------------------------------------------

 SCF Done:  E(RB3LYP) =  -593.023763587     A.U. after   12 cycles

 Alpha  occ. eigenvalues -- -101.26645 -14.21142 -10.10542 -10.10440  -9.18097
 Alpha  occ. eigenvalues --   -6.93885  -6.93854  -6.93854  -0.76434  -0.59008
 Alpha  occ. eigenvalues --   -0.52019  -0.32416  -0.30406  -0.30406  -0.23053
 Alpha  occ. eigenvalues --   -0.20271  -0.20271  -0.06661  -0.06661  -0.06480
 Alpha virt. eigenvalues --    0.10726   0.14660   0.14661   0.14726   0.15846
 Alpha virt. eigenvalues --    0.15847   0.18655   0.20624   0.21166   0.21166
 Alpha virt. eigenvalues --    0.23777   0.23985   0.23986   0.25970   0.25970

 Mulliken charges:
               1
     1  C   -0.071632
     2  Cl  -0.833773
     3  H    0.218379
     4  H    0.218389
     5  H    0.218391
     6  C   -0.206916
     7  N   -0.542839
 Sum of Mulliken charges =  -1.00000

 Dipole moment (field-independent basis, Debye):
    X=              3.4114    Y=              0.0000    Z=             -0.0010  Tot=              3.4114
 Quadrupole moment (field-independent basis, Debye-Ang):
   XX=            -84.9697   YY=            -35.4636   ZZ=            -35.4637
   XY=              0.0000   XZ=              0.0001   YZ=              0.0000

  Exact polarizability:  98.369  -0.000  40.640   0.001   0.000  40.641
 Approx polarizability: 119.235  -0.000  50.170   0.006   0.000  50.170

 ******    1 imaginary frequencies (negative Signs) ******

                      1                      2                      3
                      A                      A                      A
 Frequencies --   -277.0764               167.9980               168.0608
 Red. masses --     10.3809                 4.8709                 4.8718
 Frc consts  --      0.4696                 0.0810                 0.0811
 IR Inten    --    392.3443                21.3620                21.3610

                      4                      5                      6
                      A                      A                      A
 Frequencies --    234.6887               429.1725               429.1955
 Red. masses --     15.1830                 4.0072                 4.0071
 Frc consts  --      0.4927                 0.4349                 0.4349
 IR Inten    --     28.9508                 0.0615                 0.0617

                      7                      8                      9
                      A                      A                      A
 Frequencies --   1007.0361              1007.0550              1201.4606
 Red. masses --      1.2440                 1.2439                 1.0706
 Frc consts  --      0.7433                 0.7433                 0.9106
 IR Inten    --      0.0340                 0.0341                 7.9665

                     10                     11                     12
                      A                      A                      A
 Frequencies --   1431.8423              1431.8560              2150.9771
 Red. masses --      1.0658                 1.0658                12.4518
 Frc consts  --      1.2874                 1.2874                33.9433
 IR Inten    --      7.3706                 7.3743                 0.2135

                     13                     14                     15
                      A                      A                      A
 Frequencies --   3144.0115              3292.8332              3292.8862
 Red. masses --      1.0178                 1.1159                 1.1159
 Frc consts  --      5.9276                 7.1286                 7.1288
 IR Inten    --      1.1239                 1.0153                 1.0168

 - Thermochemistry -
 -------------------
 Temperature   298.150 Kelvin.  Pressure   1.00000 Atm.
 Atom     1 has atomic number  6 and mass  12.00000

 Molecular mass:    75.99540 amu.
 Principal axes and moments of inertia in atomic units:
                           1         2         3
     Eigenvalues --    11.909321420.575571420.57566
           X            1.00000   0.00002  -0.00001
           Y           -0.00000   0.49902   0.86659
           Z           -0.00002   0.86659  -0.49902
 This molecule is an asymmetric top.
 Rotational symmetry number  1.
 Rotational temperatures (Kelvin)      7.27278     0.06097     0.06097
 Rotational constants (GHZ):         151.54018     1.27043     1.27043
    1 imaginary frequencies ignored.
 Zero-point vibrational energy     115972.4 (Joules/Mol)
                                   27.71807 (Kcal/Mol)
 Warning -- explicit consideration of   5 degrees of freedom as
           vibrations may cause significant error
 Vibrational temperatures:    241.71   241.80   337.66   617.48   617.52
          (Kelvin)           1448.90  1448.93  1728.63  2060.10  2060.12
                             3094.78  4523.53  4737.65  4737.73

 Zero-point correction=                           0.044172 (Hartree/Particle)
 Thermal correction to Energy=                    0.049403
 Thermal correction to Enthalpy=                  0.050348
 Thermal correction to Gibbs Free Energy=         0.015984
 Sum of electronic and zero-point Energies=           -592.979592
 Sum of electronic and thermal Energies=              -592.974360
 Sum of electronic and thermal Enthalpies=            -592.973416
 Sum of electronic and thermal Free Energies=         -593.007780

                     E (Thermal)             CV                S
                      KCal/Mol        Cal/Mol-Kelvin    Cal/Mol-Kelvin
 Total                   31.001             15.466             72.324
 Electronic               0.000              0.000              0.000
 Translational            0.889              2.981             38.900
 Rotational               0.889              2.981             24.689
 Vibrational             29.224              9.504              8.735
 Vibration     1          0.625              1.882              2.458
 Vibration     2          0.625              1.882              2.457
 Vibration     3          0.654              1.788              1.843
 Vibration     4          0.791              1.407              0.861
 Vibration     5          0.791              1.407              0.861

 Normal termination of Gaussian 16 at Sun Oct 13 09:49:44 2024.
