 Gaussian 16, Revision B.01,
 Gaussian 16:  ES64L-G16RevB.01 20-Dec-2017

 ---------------------------------------------------------------------
 #p b3lyp 6-31++g(d,p) scf=verytight NoSymm freq=noraman int=ultrafine
 ---------------------------------------------------------------------

 -------------------------
 RxCoord=-2.79936 DE=29.47
 -------------------------
 Symbolic Z-matrix:
 Charge = -1 Multiplicity = 1

                          Input orientation:
 ---------------------------------------------------------------------
 Center     Atomic      Atomic             Coordinates (Angstroms)
 Number     Number       Type             X           Y           Z
 ---------------------------------------------------------------------
      1          6           0        0.394206    0.000007   -0.000241
      2         17           0       -2.251742   -0.000001    0.000109
      3          1           0        0.139230    0.002447   -1.052342
      4          1           0        0.139303    0.909934    0.527921
      5          1           0        0.139289   -0.912365    0.523681
      6          6           0        2.194575    0.000003   -0.000193
      7          7           0        3.374572   -0.000006    0.000153
 ---------------------------------------------------------------------

 SCF Done:  E(RB3LYP) =  -593.021476163     A.U. after   12 cycles

 Alpha  occ. eigenvalues -- -101.26788 -14.20964 -10.10641 -10.10205  -9.18241
 Alpha  occ. eigenvalues --   -6.94035  -6.93995  -6.93995  -0.76242  -0.58908
 Alpha  occ. eigenvalues --   -0.52120  -0.32105  -0.30430  -0.30429  -0.22831
 Alpha  occ. eigenvalues --   -0.20135  -0.20135  -0.06784  -0.06784  -0.06612
 Alpha virt. eigenvalues --    0.10740   0.14665   0.14665   0.14742   0.15988
 Alpha virt. eigenvalues --    0.15989   0.18285   0.20599   0.21203   0.21203
 Alpha virt. eigenvalues --    0.23720   0.23976   0.23976   0.25947   0.25947

 Mulliken charges:
               1
     1  C   -0.083483
     2  Cl  -0.827528
     3  H    0.218394
     4  H    0.218404
     5  H    0.218406
     6  C   -0.201182
     7  N   -0.543012
 Sum of Mulliken charges =  -1.00000

 Dipole moment (field-independent basis, Debye):
    X=              3.2406    Y=              0.0000    Z=             -0.0010  Tot=              3.2406
 Quadrupole moment (field-independent basis, Debye-Ang):
   XX=            -85.0866   YY=            -35.4540   ZZ=            -35.4541
   XY=              0.0000   XZ=              0.0000   YZ=              0.0000

  Exact polarizability: 100.142  -0.000  40.564   0.001   0.000  40.565
 Approx polarizability: 121.448  -0.000  50.106   0.005   0.000  50.106

 ******    1 imaginary frequencies (negative Signs) ******

                      1                      2                      3
                      A                      A                      A
 Frequencies --   -315.9125               167.7207               167.7771
 Red. masses --     10.5326                 4.9422                 4.9430
 Frc consts  --      0.6193                 0.0819                 0.0820
 IR Inten    --    442.8914                21.2486                21.2477

                      4                      5                      6
                      A                      A                      A
 Frequencies --    235.3175               425.3436               425.3659
 Red. masses --     15.4246                 4.0890                 4.0889
 Frc consts  --      0.5032                 0.4359                 0.4359
 IR Inten    --     28.3115                 0.1138                 0.1140

                      7                      8                      9
                      A                      A                      A
 Frequencies --   1005.5967              1005.6098              1192.3806
 Red. masses --      1.2285                 1.2284                 1.0686
 Frc consts  --      0.7319                 0.7319                 0.8952
 IR Inten    --      0.0191                 0.0192                11.5782

                     10                     11                     12
                      A                      A                      A
 Frequencies --   1430.4896              1430.5042              2150.1299
 Red. masses --      1.0677                 1.0677                12.4647
 Frc consts  --      1.2873                 1.2873                33.9518
 IR Inten    --      7.1524                 7.1555                 0.5131

                     13                     14                     15
                      A                      A                      A
 Frequencies --   3147.3063              3299.8164              3299.8843
 Red. masses --      1.0170                 1.1165                 1.1165
 Frc consts  --      5.9356                 7.1628                 7.1632
 IR Inten    --      1.4232                 1.1075                 1.1095

 - Thermochemistry -
 -------------------
 Temperature   298.150 Kelvin.  Pressure   1.00000 Atm.
 Atom     1 has atomic number  6 and mass  12.00000

 Molecular mass:    75.99540 amu.
 Principal axes and moments of inertia in atomic units:
                           1         2         3
     Eigenvalues --    11.951461421.848221421.84835
           X            1.00000   0.00001   0.00002
           Y           -0.00000   0.95279  -0.30364
           Z           -0.00002   0.30364   0.95279
 This molecule is an asymmetric top.
 Rotational symmetry number  1.
 Rotational temperatures (Kelvin)      7.24714     0.06092     0.06092
 Rotational constants (GHZ):         151.00596     1.26929     1.26929
    1 imaginary frequencies ignored.
 Zero-point vibrational energy     115937.5 (Joules/Mol)
                                   27.70974 (Kcal/Mol)
 Warning -- explicit consideration of   5 degrees of freedom as
           vibrations may cause significant error
 Vibrational temperatures:    241.31   241.39   338.57   611.97   612.01
          (Kelvin)           1446.83  1446.85  1715.57  2058.16  2058.18
                             3093.56  4528.27  4747.70  4747.80

 Zero-point correction=                           0.044158 (Hartree/Particle)
 Thermal correction to Energy=                    0.049398
 Thermal correction to Enthalpy=                  0.050342
 Thermal correction to Gibbs Free Energy=         0.015962
 Sum of electronic and zero-point Energies=           -592.977318
 Sum of electronic and thermal Energies=              -592.972078
 Sum of electronic and thermal Enthalpies=            -592.971134
 Sum of electronic and thermal Free Energies=         -593.005514

                     E (Thermal)             CV                S
                      KCal/Mol        Cal/Mol-Kelvin    Cal/Mol-Kelvin
 Total                   30.998             15.493             72.359
 Electronic               0.000              0.000              0.000
 Translational            0.889              2.981             38.900
 Rotational               0.889              2.981             24.694
 Vibrational             29.220              9.531              8.765
 Vibration     1          0.624              1.882              2.461
 Vibration     2          0.625              1.882              2.460
 Vibration     3          0.655              1.787              1.838
 Vibration     4          0.787              1.415              0.874
 Vibration     5          0.787              1.415              0.874

 Normal termination of Gaussian 16 at Sun Oct 13 09:49:44 2024.
