 Gaussian 16, Revision B.01,
 Gaussian 16:  ES64L-G16RevB.01 20-Dec-2017

 ---------------------------------------------------------------------
 #p b3lyp 6-31++g(d,p) scf=verytight NoSymm freq=noraman int=ultrafine
 ---------------------------------------------------------------------

 -------------------------
 RxCoord=-2.69938 DE=31.09
 -------------------------
 Symbolic Z-matrix:
 Charge = -1 Multiplicity = 1

                          Input orientation:
 ---------------------------------------------------------------------
 Center     Atomic      Atomic             Coordinates (Angstroms)
 Number     Number       Type             X           Y           Z
 ---------------------------------------------------------------------
      1          6           0        0.380927    0.000007   -0.000240
      2         17           0       -2.250371   -0.000001    0.000109
      3          1           0        0.135777    0.002452   -1.054174
      4          1           0        0.135834    0.911523    0.528831
      5          1           0        0.135820   -0.913958    0.524583
      6          6           0        2.199264    0.000003   -0.000195
      7          7           0        3.379256   -0.000006    0.000155
 ---------------------------------------------------------------------

 SCF Done:  E(RB3LYP) =  -593.019223752     A.U. after   12 cycles

 Alpha  occ. eigenvalues -- -101.26941 -14.20773 -10.10735 -10.09955  -9.18395
 Alpha  occ. eigenvalues --   -6.94196  -6.94146  -6.94146  -0.76041  -0.58822
 Alpha  occ. eigenvalues --   -0.52226  -0.31789  -0.30457  -0.30456  -0.22599
 Alpha  occ. eigenvalues --   -0.19987  -0.19987  -0.06914  -0.06914  -0.06752
 Alpha virt. eigenvalues --    0.10754   0.14670   0.14671   0.14758   0.16137
 Alpha virt. eigenvalues --    0.16137   0.17917   0.20571   0.21244   0.21244
 Alpha virt. eigenvalues --    0.23683   0.23964   0.23965   0.25924   0.25924

 Mulliken charges:
               1
     1  C   -0.095556
     2  Cl  -0.820955
     3  H    0.218411
     4  H    0.218421
     5  H    0.218423
     6  C   -0.195335
     7  N   -0.543409
 Sum of Mulliken charges =  -1.00000

 Dipole moment (field-independent basis, Debye):
    X=              3.0601    Y=              0.0000    Z=             -0.0010  Tot=              3.0601
 Quadrupole moment (field-independent basis, Debye-Ang):
   XX=            -85.2054   YY=            -35.4434   ZZ=            -35.4436
   XY=              0.0000   XZ=              0.0000   YZ=              0.0000

  Exact polarizability: 101.954  -0.000  40.484   0.001   0.000  40.485
 Approx polarizability: 123.767  -0.000  50.038   0.005   0.000  50.037

 ******    1 imaginary frequencies (negative Signs) ******

                      1                      2                      3
                      A                      A                      A
 Frequencies --   -347.4183               167.2210               167.2714
 Red. masses --     10.6855                 5.0155                 5.0162
 Frc consts  --      0.7599                 0.0826                 0.0827
 IR Inten    --    495.4148                21.1134                21.1126

                      4                      5                      6
                      A                      A                      A
 Frequencies --    235.8223               421.2200               421.2421
 Red. masses --     15.6580                 4.1743                 4.1741
 Frc consts  --      0.5130                 0.4364                 0.4364
 IR Inten    --     27.8389                 0.1850                 0.1853

                      7                      8                      9
                      A                      A                      A
 Frequencies --   1004.1881              1004.1990              1183.1439
 Red. masses --      1.2133                 1.2133                 1.0667
 Frc consts  --      0.7209                 0.7209                 0.8798
 IR Inten    --      0.0090                 0.0090                15.7065

                     10                     11                     12
                      A                      A                      A
 Frequencies --   1429.0648              1429.0791              2149.6781
 Red. masses --      1.0698                 1.0698                12.4781
 Frc consts  --      1.2872                 1.2872                33.9740
 IR Inten    --      6.9387                 6.9411                 0.8883

                     13                     14                     15
                      A                      A                      A
 Frequencies --   3150.5899              3306.7236              3306.8011
 Red. masses --      1.0163                 1.1171                 1.1171
 Frc consts  --      5.9437                 7.1968                 7.1972
 IR Inten    --      1.7209                 1.2052                 1.2076

 - Thermochemistry -
 -------------------
 Temperature   298.150 Kelvin.  Pressure   1.00000 Atm.
 Atom     1 has atomic number  6 and mass  12.00000

 Molecular mass:    75.99540 amu.
 Principal axes and moments of inertia in atomic units:
                           1         2         3
     Eigenvalues --    11.993101423.111641423.11189
           X            1.00000   0.00000   0.00002
           Y           -0.00000   0.98917  -0.14681
           Z           -0.00002   0.14681   0.98917
 This molecule is an asymmetric top.
 Rotational symmetry number  1.
 Rotational temperatures (Kelvin)      7.22198     0.06086     0.06086
 Rotational constants (GHZ):         150.48167     1.26817     1.26817
    1 imaginary frequencies ignored.
 Zero-point vibrational energy     115895.7 (Joules/Mol)
                                   27.69973 (Kcal/Mol)
 Warning -- explicit consideration of   5 degrees of freedom as
           vibrations may cause significant error
 Vibrational temperatures:    240.59   240.67   339.30   606.04   606.07
          (Kelvin)           1444.80  1444.82  1702.28  2056.11  2056.13
                             3092.91  4533.00  4757.64  4757.75

 Zero-point correction=                           0.044142 (Hartree/Particle)
 Thermal correction to Energy=                    0.049392
 Thermal correction to Enthalpy=                  0.050336
 Thermal correction to Gibbs Free Energy=         0.015935
 Sum of electronic and zero-point Energies=           -592.975081
 Sum of electronic and thermal Energies=              -592.969832
 Sum of electronic and thermal Enthalpies=            -592.968888
 Sum of electronic and thermal Free Energies=         -593.003288

                     E (Thermal)             CV                S
                      KCal/Mol        Cal/Mol-Kelvin    Cal/Mol-Kelvin
 Total                   30.994             15.521             72.402
 Electronic               0.000              0.000              0.000
 Translational            0.889              2.981             38.900
 Rotational               0.889              2.981             24.700
 Vibrational             29.216              9.560              8.803
 Vibration     1          0.624              1.883              2.466
 Vibration     2          0.624              1.883              2.466
 Vibration     3          0.655              1.786              1.834
 Vibration     4          0.784              1.424              0.888
 Vibration     5          0.784              1.424              0.888

 Normal termination of Gaussian 16 at Sun Oct 13 09:49:50 2024.
