 Gaussian 16, Revision B.01,
 Gaussian 16:  ES64L-G16RevB.01 20-Dec-2017

 ---------------------------------------------------------------------
 #p b3lyp 6-31++g(d,p) scf=verytight NoSymm freq=noraman int=ultrafine
 ---------------------------------------------------------------------

 -------------------------
 RxCoord=-2.59940 DE=32.70
 -------------------------
 Symbolic Z-matrix:
 Charge = -1 Multiplicity = 1

                          Input orientation:
 ---------------------------------------------------------------------
 Center     Atomic      Atomic             Coordinates (Angstroms)
 Number     Number       Type             X           Y           Z
 ---------------------------------------------------------------------
      1          6           0        0.367611    0.000007   -0.000240
      2         17           0       -2.248979   -0.000002    0.000110
      3          1           0        0.132553    0.002457   -1.055975
      4          1           0        0.132596    0.913085    0.529726
      5          1           0        0.132582   -0.915524    0.525471
      6          6           0        2.203933    0.000003   -0.000197
      7          7           0        3.383889   -0.000006    0.000157
 ---------------------------------------------------------------------

 SCF Done:  E(RB3LYP) =  -593.017014404     A.U. after   12 cycles

 Alpha  occ. eigenvalues -- -101.27104 -14.20571 -10.10824 -10.09690  -9.18559
 Alpha  occ. eigenvalues --   -6.94367  -6.94306  -6.94306  -0.75833  -0.58748
 Alpha  occ. eigenvalues --   -0.52337  -0.31470  -0.30489  -0.30488  -0.22358
 Alpha  occ. eigenvalues --   -0.19828  -0.19828  -0.07053  -0.07053  -0.06900
 Alpha virt. eigenvalues --    0.10768   0.14677   0.14678   0.14773   0.16291
 Alpha virt. eigenvalues --    0.16291   0.17557   0.20539   0.21289   0.21290
 Alpha virt. eigenvalues --    0.23666   0.23951   0.23951   0.25899   0.25899

 Mulliken charges:
               1
     1  C   -0.107815
     2  Cl  -0.814057
     3  H    0.218427
     4  H    0.218438
     5  H    0.218440
     6  C   -0.189418
     7  N   -0.544015
 Sum of Mulliken charges =  -1.00000

 Dipole moment (field-independent basis, Debye):
    X=              2.8701    Y=              0.0000    Z=             -0.0010  Tot=              2.8701
 Quadrupole moment (field-independent basis, Debye-Ang):
   XX=            -85.3256   YY=            -35.4320   ZZ=            -35.4323
   XY=              0.0000   XZ=             -0.0000   YZ=              0.0000

  Exact polarizability: 103.787  -0.000  40.400   0.001   0.000  40.401
 Approx polarizability: 126.176  -0.000  49.965   0.005   0.000  49.964

 ******    1 imaginary frequencies (negative Signs) ******

                      1                      2                      3
                      A                      A                      A
 Frequencies --   -373.5720               166.5211               166.5659
 Red. masses --     10.8370                 5.0906                 5.0913
 Frc consts  --      0.8911                 0.0832                 0.0832
 IR Inten    --    549.5011                20.9542                20.9535

                      4                      5                      6
                      A                      A                      A
 Frequencies --    236.1988               416.8352               416.8577
 Red. masses --     15.8875                 4.2628                 4.2626
 Frc consts  --      0.5222                 0.4364                 0.4364
 IR Inten    --     27.4240                 0.2768                 0.2772

                      7                      8                      9
                      A                      A                      A
 Frequencies --   1002.8286              1002.8384              1173.7801
 Red. masses --      1.1985                 1.1985                 1.0648
 Frc consts  --      0.7102                 0.7102                 0.8644
 IR Inten    --      0.0030                 0.0030                20.2575

                     10                     11                     12
                      A                      A                      A
 Frequencies --   1427.5768              1427.5895              2149.5652
 Red. masses --      1.0718                 1.0718                12.4918
 Frc consts  --      1.2870                 1.2870                34.0077
 IR Inten    --      6.7298                 6.7317                 1.2989

                     13                     14                     15
                      A                      A                      A
 Frequencies --   3153.8458              3313.5279              3313.6080
 Red. masses --      1.0156                 1.1177                 1.1177
 Frc consts  --      5.9518                 7.2303                 7.2307
 IR Inten    --      2.0041                 1.3077                 1.3105

 - Thermochemistry -
 -------------------
 Temperature   298.150 Kelvin.  Pressure   1.00000 Atm.
 Atom     1 has atomic number  6 and mass  12.00000

 Molecular mass:    75.99540 amu.
 Principal axes and moments of inertia in atomic units:
                           1         2         3
     Eigenvalues --    12.034111424.361331424.36170
           X            1.00000   0.00000   0.00002
           Y           -0.00000   0.99607  -0.08862
           Z           -0.00002   0.08862   0.99607
 This molecule is an asymmetric top.
 Rotational symmetry number  1.
 Rotational temperatures (Kelvin)      7.19737     0.06081     0.06081
 Rotational constants (GHZ):         149.96883     1.26705     1.26705
    1 imaginary frequencies ignored.
 Zero-point vibrational energy     115847.2 (Joules/Mol)
                                   27.68814 (Kcal/Mol)
 Warning -- explicit consideration of   5 degrees of freedom as
           vibrations may cause significant error
 Vibrational temperatures:    239.59   239.65   339.84   599.73   599.77
          (Kelvin)           1442.85  1442.86  1688.81  2053.96  2053.98
                             3092.74  4537.68  4767.43  4767.54

 Zero-point correction=                           0.044124 (Hartree/Particle)
 Thermal correction to Energy=                    0.049384
 Thermal correction to Enthalpy=                  0.050329
 Thermal correction to Gibbs Free Energy=         0.015904
 Sum of electronic and zero-point Energies=           -592.972891
 Sum of electronic and thermal Energies=              -592.967630
 Sum of electronic and thermal Enthalpies=            -592.966686
 Sum of electronic and thermal Free Energies=         -593.001111

                     E (Thermal)             CV                S
                      KCal/Mol        Cal/Mol-Kelvin    Cal/Mol-Kelvin
 Total                   30.989             15.552             72.453
 Electronic               0.000              0.000              0.000
 Translational            0.889              2.981             38.900
 Rotational               0.889              2.981             24.705
 Vibrational             29.212              9.590              8.849
 Vibration     1          0.624              1.884              2.474
 Vibration     2          0.624              1.884              2.474
 Vibration     3          0.655              1.785              1.831
 Vibration     4          0.780              1.434              0.903
 Vibration     5          0.780              1.434              0.903

 Normal termination of Gaussian 16 at Sun Oct 13 09:49:49 2024.
