 Gaussian 16, Revision B.01,
 Gaussian 16:  ES64L-G16RevB.01 20-Dec-2017

 ---------------------------------------------------------------------
 #p b3lyp 6-31++g(d,p) scf=verytight NoSymm freq=noraman int=ultrafine
 ---------------------------------------------------------------------

 -------------------------
 RxCoord=-2.49942 DE=34.27
 -------------------------
 Symbolic Z-matrix:
 Charge = -1 Multiplicity = 1

                          Input orientation:
 ---------------------------------------------------------------------
 Center     Atomic      Atomic             Coordinates (Angstroms)
 Number     Number       Type             X           Y           Z
 ---------------------------------------------------------------------
      1          6           0        0.354258    0.000007   -0.000240
      2         17           0       -2.247567   -0.000002    0.000110
      3          1           0        0.129555    0.002462   -1.057739
      4          1           0        0.129587    0.914615    0.530604
      5          1           0        0.129572   -0.917058    0.526342
      6          6           0        2.208580    0.000003   -0.000199
      7          7           0        3.388471   -0.000006    0.000159
 ---------------------------------------------------------------------

 SCF Done:  E(RB3LYP) =  -593.014855357     A.U. after   12 cycles

 Alpha  occ. eigenvalues -- -101.27278 -14.20358 -10.10909 -10.09413  -9.18734
 Alpha  occ. eigenvalues --   -6.94549  -6.94477  -6.94477  -0.75617  -0.58689
 Alpha  occ. eigenvalues --   -0.52452  -0.31146  -0.30524  -0.30522  -0.22109
 Alpha  occ. eigenvalues --   -0.19658  -0.19658  -0.07200  -0.07200  -0.07057
 Alpha virt. eigenvalues --    0.10782   0.14685   0.14685   0.14786   0.16450
 Alpha virt. eigenvalues --    0.16450   0.17210   0.20502   0.21339   0.21339
 Alpha virt. eigenvalues --    0.23663   0.23936   0.23937   0.25873   0.25874

 Mulliken charges:
               1
     1  C   -0.120225
     2  Cl  -0.806840
     3  H    0.218442
     4  H    0.218452
     5  H    0.218453
     6  C   -0.183468
     7  N   -0.544813
 Sum of Mulliken charges =  -1.00000

 Dipole moment (field-independent basis, Debye):
    X=              2.6709    Y=              0.0000    Z=             -0.0010  Tot=              2.6709
 Quadrupole moment (field-independent basis, Debye-Ang):
   XX=            -85.4467   YY=            -35.4199   ZZ=            -35.4203
   XY=              0.0000   XZ=             -0.0001   YZ=              0.0000

  Exact polarizability: 105.625  -0.000  40.313   0.001   0.000  40.314
 Approx polarizability: 128.658  -0.000  49.888   0.005   0.000  49.887

 ******    1 imaginary frequencies (negative Signs) ******

                      1                      2                      3
                      A                      A                      A
 Frequencies --   -395.5675               165.6294               165.6687
 Red. masses --     10.9857                 5.1677                 5.1684
 Frc consts  --      1.0128                 0.0835                 0.0836
 IR Inten    --    604.6468                20.7685                20.7679

                      4                      5                      6
                      A                      A                      A
 Frequencies --    236.4452               412.2093               412.2323
 Red. masses --     16.1147                 4.3540                 4.3539
 Frc consts  --      0.5308                 0.4359                 0.4359
 IR Inten    --     27.0064                 0.3912                 0.3917

                      7                      8                      9
                      A                      A                      A
 Frequencies --   1001.5313              1001.5402              1164.3230
 Red. masses --      1.1842                 1.1842                 1.0631
 Frc consts  --      0.6999                 0.6999                 0.8491
 IR Inten    --      0.0003                 0.0003                25.1309

                     10                     11                     12
                      A                      A                      A
 Frequencies --   1426.0345              1426.0465              2149.7631
 Red. masses --      1.0739                 1.0739                12.5057
 Frc consts  --      1.2867                 1.2867                34.0516
 IR Inten    --      6.5259                 6.5273                 1.7094

                     13                     14                     15
                      A                      A                      A
 Frequencies --   3157.0560              3320.1982              3320.2795
 Red. masses --      1.0149                 1.1183                 1.1183
 Frc consts  --      5.9598                 7.2632                 7.2636
 IR Inten    --      2.2607                 1.4144                 1.4176

 - Thermochemistry -
 -------------------
 Temperature   298.150 Kelvin.  Pressure   1.00000 Atm.
 Atom     1 has atomic number  6 and mass  12.00000

 Molecular mass:    75.99540 amu.
 Principal axes and moments of inertia in atomic units:
                           1         2         3
     Eigenvalues --    12.074361425.597401425.59788
           X            1.00000   0.00000   0.00002
           Y           -0.00000   0.99817  -0.06055
           Z           -0.00002   0.06055   0.99817
 This molecule is an asymmetric top.
 Rotational symmetry number  1.
 Rotational temperatures (Kelvin)      7.17338     0.06076     0.06076
 Rotational constants (GHZ):         149.46892     1.26595     1.26595
    1 imaginary frequencies ignored.
 Zero-point vibrational energy     115792.3 (Joules/Mol)
                                   27.67502 (Kcal/Mol)
 Warning -- explicit consideration of   5 degrees of freedom as
           vibrations may cause significant error
 Vibrational temperatures:    238.30   238.36   340.19   593.08   593.11
          (Kelvin)           1440.98  1440.99  1675.20  2051.75  2051.76
                             3093.03  4542.30  4777.02  4777.14

 Zero-point correction=                           0.044103 (Hartree/Particle)
 Thermal correction to Energy=                    0.049376
 Thermal correction to Enthalpy=                  0.050320
 Thermal correction to Gibbs Free Energy=         0.015867
 Sum of electronic and zero-point Energies=           -592.970752
 Sum of electronic and thermal Energies=              -592.965479
 Sum of electronic and thermal Enthalpies=            -592.964535
 Sum of electronic and thermal Free Energies=         -592.998988

                     E (Thermal)             CV                S
                      KCal/Mol        Cal/Mol-Kelvin    Cal/Mol-Kelvin
 Total                   30.984             15.584             72.512
 Electronic               0.000              0.000              0.000
 Translational            0.889              2.981             38.900
 Rotational               0.889              2.981             24.710
 Vibrational             29.206              9.623              8.902
 Vibration     1          0.624              1.885              2.485
 Vibration     2          0.624              1.885              2.484
 Vibration     3          0.655              1.785              1.829
 Vibration     4          0.776              1.444              0.919
 Vibration     5          0.776              1.444              0.919

 Normal termination of Gaussian 16 at Sun Oct 13 09:49:48 2024.
