 Gaussian 16, Revision B.01,
 Gaussian 16:  ES64L-G16RevB.01 20-Dec-2017

 ---------------------------------------------------------------------
 #p b3lyp 6-31++g(d,p) scf=verytight NoSymm freq=noraman int=ultrafine
 ---------------------------------------------------------------------

 -------------------------
 RxCoord=-2.39944 DE=35.82
 -------------------------
 Symbolic Z-matrix:
 Charge = -1 Multiplicity = 1

                          Input orientation:
 ---------------------------------------------------------------------
 Center     Atomic      Atomic             Coordinates (Angstroms)
 Number     Number       Type             X           Y           Z
 ---------------------------------------------------------------------
      1          6           0        0.340869    0.000007   -0.000240
      2         17           0       -2.246131   -0.000002    0.000110
      3          1           0        0.126780    0.002467   -1.059458
      4          1           0        0.126803    0.916108    0.531460
      5          1           0        0.126788   -0.918554    0.527192
      6          6           0        2.213199    0.000003   -0.000201
      7          7           0        3.393002   -0.000006    0.000161
 ---------------------------------------------------------------------

 SCF Done:  E(RB3LYP) =  -593.012753243     A.U. after   12 cycles

 Alpha  occ. eigenvalues -- -101.27462 -14.20136 -10.10988 -10.09122  -9.18919
 Alpha  occ. eigenvalues --   -6.94742  -6.94658  -6.94658  -0.75393  -0.58642
 Alpha  occ. eigenvalues --   -0.52570  -0.30820  -0.30561  -0.30560  -0.21854
 Alpha  occ. eigenvalues --   -0.19478  -0.19478  -0.07355  -0.07355  -0.07222
 Alpha virt. eigenvalues --    0.10797   0.14693   0.14693   0.14795   0.16613
 Alpha virt. eigenvalues --    0.16613   0.16881   0.20461   0.21392   0.21392
 Alpha virt. eigenvalues --    0.23674   0.23920   0.23920   0.25847   0.25847

 Mulliken charges:
               1
     1  C   -0.132743
     2  Cl  -0.799313
     3  H    0.218451
     4  H    0.218460
     5  H    0.218462
     6  C   -0.177534
     7  N   -0.545783
 Sum of Mulliken charges =  -1.00000

 Dipole moment (field-independent basis, Debye):
    X=              2.4626    Y=              0.0000    Z=             -0.0010  Tot=              2.4626
 Quadrupole moment (field-independent basis, Debye-Ang):
   XX=            -85.5684   YY=            -35.4073   ZZ=            -35.4077
   XY=              0.0000   XZ=             -0.0001   YZ=              0.0000

  Exact polarizability: 107.451  -0.000  40.224   0.001   0.000  40.224
 Approx polarizability: 131.193  -0.000  49.808   0.004   0.000  49.807

 ******    1 imaginary frequencies (negative Signs) ******

                      1                      2                      3
                      A                      A                      A
 Frequencies --   -414.1967               164.5634               164.5976
 Red. masses --     11.1307                 5.2465                 5.2471
 Frc consts  --      1.1251                 0.0837                 0.0838
 IR Inten    --    660.2974                20.5543                20.5538

                      4                      5                      6
                      A                      A                      A
 Frequencies --    236.5655               407.3727               407.3970
 Red. masses --     16.3398                 4.4477                 4.4477
 Frc consts  --      0.5388                 0.4349                 0.4349
 IR Inten    --     26.5504                 0.5297                 0.5302

                      7                      8                      9
                      A                      A                      A
 Frequencies --   1000.3040              1000.3120              1154.8089
 Red. masses --      1.1704                 1.1704                 1.0614
 Frc consts  --      0.6900                 0.6900                 0.8340
 IR Inten    --      0.0003                 0.0003                30.2221

                     10                     11                     12
                      A                      A                      A
 Frequencies --   1424.4461              1424.4583              2150.2171
 Red. masses --      1.0761                 1.0761                12.5195
 Frc consts  --      1.2864                 1.2864                34.1037
 IR Inten    --      6.3277                 6.3286                 2.0895

                     13                     14                     15
                      A                      A                      A
 Frequencies --   3160.2134              3326.7208              3326.7943
 Red. masses --      1.0142                 1.1188                 1.1188
 Frc consts  --      5.9677                 7.2954                 7.2958
 IR Inten    --      2.4805                 1.5245                 1.5282

 - Thermochemistry -
 -------------------
 Temperature   298.150 Kelvin.  Pressure   1.00000 Atm.
 Atom     1 has atomic number  6 and mass  12.00000

 Molecular mass:    75.99540 amu.
 Principal axes and moments of inertia in atomic units:
                           1         2         3
     Eigenvalues --    12.113671426.816401426.81700
           X            1.00000   0.00000   0.00002
           Y           -0.00000   0.99920  -0.04001
           Z           -0.00002   0.04001   0.99920
 This molecule is an asymmetric top.
 Rotational symmetry number  1.
 Rotational temperatures (Kelvin)      7.15010     0.06070     0.06070
 Rotational constants (GHZ):         148.98384     1.26487     1.26487
    1 imaginary frequencies ignored.
 Zero-point vibrational energy     115731.4 (Joules/Mol)
                                   27.66046 (Kcal/Mol)
 Warning -- explicit consideration of   5 degrees of freedom as
           vibrations may cause significant error
 Vibrational temperatures:    236.77   236.82   340.36   586.12   586.15
          (Kelvin)           1439.21  1439.23  1661.51  2049.46  2049.48
                             3093.68  4546.84  4786.41  4786.51

 Zero-point correction=                           0.044080 (Hartree/Particle)
 Thermal correction to Energy=                    0.049367
 Thermal correction to Enthalpy=                  0.050311
 Thermal correction to Gibbs Free Energy=         0.015827
 Sum of electronic and zero-point Energies=           -592.968673
 Sum of electronic and thermal Energies=              -592.963387
 Sum of electronic and thermal Enthalpies=            -592.962443
 Sum of electronic and thermal Free Energies=         -592.996926

                     E (Thermal)             CV                S
                      KCal/Mol        Cal/Mol-Kelvin    Cal/Mol-Kelvin
 Total                   30.978             15.618             72.578
 Electronic               0.000              0.000              0.000
 Translational            0.889              2.981             38.900
 Rotational               0.889              2.981             24.715
 Vibrational             29.201              9.657              8.963
 Vibration     1          0.623              1.886              2.497
 Vibration     2          0.623              1.886              2.496
 Vibration     3          0.655              1.785              1.829
 Vibration     4          0.772              1.454              0.936
 Vibration     5          0.772              1.454              0.936

 Normal termination of Gaussian 16 at Sun Oct 13 09:49:56 2024.
