 Gaussian 16, Revision B.01,
 Gaussian 16:  ES64L-G16RevB.01 20-Dec-2017

 ---------------------------------------------------------------------
 #p b3lyp 6-31++g(d,p) scf=verytight NoSymm freq=noraman int=ultrafine
 ---------------------------------------------------------------------

 -------------------------
 RxCoord=-2.29947 DE=37.33
 -------------------------
 Symbolic Z-matrix:
 Charge = -1 Multiplicity = 1

                          Input orientation:
 ---------------------------------------------------------------------
 Center     Atomic      Atomic             Coordinates (Angstroms)
 Number     Number       Type             X           Y           Z
 ---------------------------------------------------------------------
      1          6           0        0.327444    0.000007   -0.000240
      2         17           0       -2.244671   -0.000002    0.000110
      3          1           0        0.124225    0.002472   -1.061127
      4          1           0        0.124241    0.917556    0.532292
      5          1           0        0.124226   -0.920007    0.528017
      6          6           0        2.217786    0.000003   -0.000203
      7          7           0        3.397481   -0.000006    0.000163
 ---------------------------------------------------------------------

 SCF Done:  E(RB3LYP) =  -593.010713978     A.U. after   12 cycles

 Alpha  occ. eigenvalues -- -101.27657 -14.19904 -10.11063 -10.08821  -9.19114
 Alpha  occ. eigenvalues --   -6.94945  -6.94849  -6.94849  -0.75163  -0.58610
 Alpha  occ. eigenvalues --   -0.52690  -0.30600  -0.30599  -0.30491  -0.21592
 Alpha  occ. eigenvalues --   -0.19288  -0.19288  -0.07517  -0.07517  -0.07394
 Alpha virt. eigenvalues --    0.10811   0.14702   0.14702   0.14799   0.16572
 Alpha virt. eigenvalues --    0.16780   0.16780   0.20417   0.21450   0.21450
 Alpha virt. eigenvalues --    0.23696   0.23901   0.23902   0.25821   0.25821

 Mulliken charges:
               1
     1  C   -0.145324
     2  Cl  -0.791486
     3  H    0.218453
     4  H    0.218462
     5  H    0.218463
     6  C   -0.171662
     7  N   -0.546907
 Sum of Mulliken charges =  -1.00000

 Dipole moment (field-independent basis, Debye):
    X=              2.2457    Y=              0.0000    Z=             -0.0010  Tot=              2.2457
 Quadrupole moment (field-independent basis, Debye-Ang):
   XX=            -85.6902   YY=            -35.3942   ZZ=            -35.3947
   XY=              0.0000   XZ=             -0.0001   YZ=              0.0000

  Exact polarizability: 109.248  -0.000  40.133   0.001   0.000  40.133
 Approx polarizability: 133.760  -0.000  49.725   0.004   0.000  49.724

 ******    1 imaginary frequencies (negative Signs) ******

                      1                      2                      3
                      A                      A                      A
 Frequencies --   -430.0183               163.3309               163.3603
 Red. masses --     11.2708                 5.3269                 5.3275
 Frc consts  --      1.2280                 0.0837                 0.0838
 IR Inten    --    715.8875                20.3094                20.3089

                      4                      5                      6
                      A                      A                      A
 Frequencies --    236.5655               402.3481               402.3732
 Red. masses --     16.5623                 4.5433                 4.5433
 Frc consts  --      0.5461                 0.4333                 0.4334
 IR Inten    --     26.0330                 0.6939                 0.6946

                      7                      8                      9
                      A                      A                      A
 Frequencies --    999.1533               999.1602              1145.2808
 Red. masses --      1.1571                 1.1570                 1.0599
 Frc consts  --      0.6806                 0.6806                 0.8191
 IR Inten    --      0.0025                 0.0025                35.4281

                     10                     11                     12
                      A                      A                      A
 Frequencies --   1422.8208              1422.8363              2150.8949
 Red. masses --      1.0782                 1.0782                12.5332
 Frc consts  --      1.2860                 1.2861                34.1625
 IR Inten    --      6.1353                 6.1358                 2.4150

                     13                     14                     15
                      A                      A                      A
 Frequencies --   3163.3040              3333.0663              3333.1339
 Red. masses --      1.0135                 1.1194                 1.1194
 Frc consts  --      5.9755                 7.3267                 7.3271
 IR Inten    --      2.6549                 1.6372                 1.6412

 - Thermochemistry -
 -------------------
 Temperature   298.150 Kelvin.  Pressure   1.00000 Atm.
 Atom     1 has atomic number  6 and mass  12.00000

 Molecular mass:    75.99540 amu.
 Principal axes and moments of inertia in atomic units:
                           1         2         3
     Eigenvalues --    12.151901428.017171428.01789
           X            1.00000   0.00000   0.00002
           Y           -0.00000   0.99966  -0.02625
           Z           -0.00002   0.02625   0.99966
 This molecule is an asymmetric top.
 Rotational symmetry number  1.
 Rotational temperatures (Kelvin)      7.12760     0.06065     0.06065
 Rotational constants (GHZ):         148.51517     1.26381     1.26381
    1 imaginary frequencies ignored.
 Zero-point vibrational energy     115664.7 (Joules/Mol)
                                   27.64453 (Kcal/Mol)
 Warning -- explicit consideration of   5 degrees of freedom as
           vibrations may cause significant error
 Vibrational temperatures:    235.00   235.04   340.37   578.89   578.93
          (Kelvin)           1437.56  1437.57  1647.80  2047.12  2047.14
                             3094.66  4551.29  4795.54  4795.64

 Zero-point correction=                           0.044054 (Hartree/Particle)
 Thermal correction to Energy=                    0.049356
 Thermal correction to Enthalpy=                  0.050300
 Thermal correction to Gibbs Free Energy=         0.015782
 Sum of electronic and zero-point Energies=           -592.966660
 Sum of electronic and thermal Energies=              -592.961358
 Sum of electronic and thermal Enthalpies=            -592.960414
 Sum of electronic and thermal Free Energies=         -592.994932

                     E (Thermal)             CV                S
                      KCal/Mol        Cal/Mol-Kelvin    Cal/Mol-Kelvin
 Total                   30.971             15.654             72.650
 Electronic               0.000              0.000              0.000
 Translational            0.889              2.981             38.900
 Rotational               0.889              2.981             24.720
 Vibrational             29.194              9.692              9.031
 Vibration     1          0.623              1.887              2.511
 Vibration     2          0.623              1.887              2.511
 Vibration     3          0.655              1.785              1.829
 Vibration     4          0.768              1.465              0.954
 Vibration     5          0.768              1.465              0.954

 Normal termination of Gaussian 16 at Sun Oct 13 09:49:57 2024.
