 Gaussian 16, Revision B.01,
 Gaussian 16:  ES64L-G16RevB.01 20-Dec-2017

 ---------------------------------------------------------------------
 #p b3lyp 6-31++g(d,p) scf=verytight NoSymm freq=noraman int=ultrafine
 ---------------------------------------------------------------------

 -------------------------
 RxCoord=-2.19949 DE=38.80
 -------------------------
 Symbolic Z-matrix:
 Charge = -1 Multiplicity = 1

                          Input orientation:
 ---------------------------------------------------------------------
 Center     Atomic      Atomic             Coordinates (Angstroms)
 Number     Number       Type             X           Y           Z
 ---------------------------------------------------------------------
      1          6           0        0.313984    0.000007   -0.000240
      2         17           0       -2.243185   -0.000002    0.000110
      3          1           0        0.121885    0.002477   -1.062740
      4          1           0        0.121897    0.918955    0.533097
      5          1           0        0.121881   -0.921410    0.528815
      6          6           0        2.222340    0.000004   -0.000205
      7          7           0        3.401909   -0.000006    0.000166
 ---------------------------------------------------------------------

 SCF Done:  E(RB3LYP) =  -593.008742668     A.U. after   12 cycles

 Alpha  occ. eigenvalues -- -101.27861 -14.19663 -10.11132 -10.08509  -9.19319
 Alpha  occ. eigenvalues --   -6.95159  -6.95049  -6.95049  -0.74926  -0.58592
 Alpha  occ. eigenvalues --   -0.52813  -0.30640  -0.30639  -0.30159  -0.21326
 Alpha  occ. eigenvalues --   -0.19089  -0.19089  -0.07688  -0.07688  -0.07572
 Alpha virt. eigenvalues --    0.10826   0.14711   0.14711   0.14794   0.16291
 Alpha virt. eigenvalues --    0.16950   0.16950   0.20368   0.21511   0.21511
 Alpha virt. eigenvalues --    0.23728   0.23882   0.23883   0.25794   0.25794

 Mulliken charges:
               1
     1  C   -0.157921
     2  Cl  -0.783370
     3  H    0.218446
     4  H    0.218454
     5  H    0.218455
     6  C   -0.165903
     7  N   -0.548162
 Sum of Mulliken charges =  -1.00000

 Dipole moment (field-independent basis, Debye):
    X=              2.0206    Y=              0.0000    Z=             -0.0010  Tot=              2.0206
 Quadrupole moment (field-independent basis, Debye-Ang):
   XX=            -85.8115   YY=            -35.3809   ZZ=            -35.3814
   XY=              0.0000   XZ=             -0.0001   YZ=              0.0000

  Exact polarizability: 111.001  -0.000  40.040   0.001  -0.000  40.041
 Approx polarizability: 136.337  -0.000  49.640   0.004   0.000  49.639

 ******    1 imaginary frequencies (negative Signs) ******

                      1                      2                      3
                      A                      A                      A
 Frequencies --   -443.4424               161.9344               161.9593
 Red. masses --     11.4054                 5.4089                 5.4093
 Frc consts  --      1.3214                 0.0836                 0.0836
 IR Inten    --    770.8635                20.0318                20.0313

                      4                      5                      6
                      A                      A                      A
 Frequencies --    236.4536               397.1559               397.1807
 Red. masses --     16.7810                 4.6402                 4.6402
 Frc consts  --      0.5528                 0.4312                 0.4313
 IR Inten    --     25.4388                 0.8856                 0.8863

                      7                      8                      9
                      A                      A                      A
 Frequencies --    998.0837               998.0911              1135.7897
 Red. masses --      1.1443                 1.1443                 1.0584
 Frc consts  --      0.6716                 0.6716                 0.8045
 IR Inten    --      0.0062                 0.0062                40.6507

                     10                     11                     12
                      A                      A                      A
 Frequencies --   1421.1718              1421.1928              2151.7729
 Red. masses --      1.0804                 1.0804                12.5466
 Frc consts  --      1.2856                 1.2857                34.2271
 IR Inten    --      5.9492                 5.9494                 2.6685

                     13                     14                     15
                      A                      A                      A
 Frequencies --   3166.3068              3339.2038              3339.2660
 Red. masses --      1.0129                 1.1199                 1.1199
 Frc consts  --      5.9831                 7.3571                 7.3575
 IR Inten    --      2.7776                 1.7513                 1.7557

 - Thermochemistry -
 -------------------
 Temperature   298.150 Kelvin.  Pressure   1.00000 Atm.
 Atom     1 has atomic number  6 and mass  12.00000

 Molecular mass:    75.99540 amu.
 Principal axes and moments of inertia in atomic units:
                           1         2         3
     Eigenvalues --    12.188891429.198691429.19950
           X            1.00000   0.00000   0.00002
           Y            0.00000   0.99982  -0.01896
           Z           -0.00002   0.01896   0.99982
 This molecule is an asymmetric top.
 Rotational symmetry number  1.
 Rotational temperatures (Kelvin)      7.10597     0.06060     0.06060
 Rotational constants (GHZ):         148.06439     1.26276     1.26276
    1 imaginary frequencies ignored.
 Zero-point vibrational energy     115592.5 (Joules/Mol)
                                   27.62728 (Kcal/Mol)
 Warning -- explicit consideration of   5 degrees of freedom as
           vibrations may cause significant error
 Vibrational temperatures:    232.99   233.02   340.20   571.42   571.45
          (Kelvin)           1436.02  1436.03  1634.15  2044.75  2044.78
                             3095.92  4555.61  4804.37  4804.46

 Zero-point correction=                           0.044027 (Hartree/Particle)
 Thermal correction to Energy=                    0.049345
 Thermal correction to Enthalpy=                  0.050289
 Thermal correction to Gibbs Free Energy=         0.015733
 Sum of electronic and zero-point Energies=           -592.964716
 Sum of electronic and thermal Energies=              -592.959398
 Sum of electronic and thermal Enthalpies=            -592.958454
 Sum of electronic and thermal Free Energies=         -592.993010

                     E (Thermal)             CV                S
                      KCal/Mol        Cal/Mol-Kelvin    Cal/Mol-Kelvin
 Total                   30.964             15.690             72.729
 Electronic               0.000              0.000              0.000
 Translational            0.889              2.981             38.900
 Rotational               0.889              2.981             24.724
 Vibrational             29.187              9.729              9.105
 Vibration     1          0.622              1.889              2.527
 Vibration     2          0.622              1.889              2.527
 Vibration     3          0.655              1.785              1.829
 Vibration     4          0.764              1.476              0.973
 Vibration     5          0.764              1.476              0.973

 Normal termination of Gaussian 16 at Sun Oct 13 09:49:57 2024.
