 Gaussian 16, Revision B.01,
 Gaussian 16:  ES64L-G16RevB.01 20-Dec-2017

 ---------------------------------------------------------------------
 #p b3lyp 6-31++g(d,p) scf=verytight NoSymm freq=noraman int=ultrafine
 ---------------------------------------------------------------------

 -------------------------
 RxCoord=-2.09951 DE=40.22
 -------------------------
 Symbolic Z-matrix:
 Charge = -1 Multiplicity = 1

                          Input orientation:
 ---------------------------------------------------------------------
 Center     Atomic      Atomic             Coordinates (Angstroms)
 Number     Number       Type             X           Y           Z
 ---------------------------------------------------------------------
      1          6           0        0.300489    0.000007   -0.000240
      2         17           0       -2.241672   -0.000002    0.000110
      3          1           0        0.119755    0.002482   -1.064290
      4          1           0        0.119764    0.920299    0.533871
      5          1           0        0.119748   -0.922757    0.529583
      6          6           0        2.226856    0.000004   -0.000207
      7          7           0        3.406285   -0.000006    0.000168
 ---------------------------------------------------------------------

 SCF Done:  E(RB3LYP) =  -593.006843973     A.U. after   12 cycles

 Alpha  occ. eigenvalues -- -101.28075 -14.19415 -10.11197 -10.08187  -9.19534
 Alpha  occ. eigenvalues --   -6.95382  -6.95259  -6.95259  -0.74683  -0.58589
 Alpha  occ. eigenvalues --   -0.52936  -0.30681  -0.30679  -0.29827  -0.21057
 Alpha  occ. eigenvalues --   -0.18882  -0.18882  -0.07865  -0.07865  -0.07757
 Alpha virt. eigenvalues --    0.10841   0.14721   0.14721   0.14773   0.16041
 Alpha virt. eigenvalues --    0.17122   0.17122   0.20316   0.21577   0.21577
 Alpha virt. eigenvalues --    0.23768   0.23861   0.23862   0.25767   0.25768

 Mulliken charges:
               1
     1  C   -0.170480
     2  Cl  -0.774976
     3  H    0.218428
     4  H    0.218435
     5  H    0.218436
     6  C   -0.160317
     7  N   -0.549527
 Sum of Mulliken charges =  -1.00000

 Dipole moment (field-independent basis, Debye):
    X=              1.7876    Y=              0.0000    Z=             -0.0010  Tot=              1.7876
 Quadrupole moment (field-independent basis, Debye-Ang):
   XX=            -85.9322   YY=            -35.3673   ZZ=            -35.3679
   XY=              0.0000   XZ=             -0.0002   YZ=              0.0000

  Exact polarizability: 112.695  -0.000  39.947   0.001  -0.000  39.948
 Approx polarizability: 138.902  -0.000  49.555   0.003   0.000  49.554

 ******    1 imaginary frequencies (negative Signs) ******

                      1                      2                      3
                      A                      A                      A
 Frequencies --   -454.7832               160.3816               160.4024
 Red. masses --     11.5333                 5.4922                 5.4926
 Frc consts  --      1.4054                 0.0832                 0.0833
 IR Inten    --    824.6986                19.7197                19.7193

                      4                      5                      6
                      A                      A                      A
 Frequencies --    236.2403               391.8210               391.8448
 Red. masses --     16.9946                 4.7378                 4.7378
 Frc consts  --      0.5588                 0.4285                 0.4286
 IR Inten    --     24.7577                 1.1060                 1.1067

                      7                      8                      9
                      A                      A                      A
 Frequencies --    997.0982               997.1051              1126.3911
 Red. masses --      1.1320                 1.1320                 1.0570
 Frc consts  --      0.6631                 0.6631                 0.7902
 IR Inten    --      0.0110                 0.0110                45.7989

                     10                     11                     12
                      A                      A                      A
 Frequencies --   1419.5114              1419.5395              2152.8144
 Red. masses --      1.0825                 1.0825                12.5598
 Frc consts  --      1.2852                 1.2852                34.2962
 IR Inten    --      5.7698                 5.7697                 2.8388

                     13                     14                     15
                      A                      A                      A
 Frequencies --   3169.2109              3345.1136              3345.1688
 Red. masses --      1.0123                 1.1204                 1.1204
 Frc consts  --      5.9906                 7.3865                 7.3868
 IR Inten    --      2.8446                 1.8657                 1.8705

 - Thermochemistry -
 -------------------
 Temperature   298.150 Kelvin.  Pressure   1.00000 Atm.
 Atom     1 has atomic number  6 and mass  12.00000

 Molecular mass:    75.99540 amu.
 Principal axes and moments of inertia in atomic units:
                           1         2         3
     Eigenvalues --    12.224491430.359011430.35990
           X            1.00000   0.00000   0.00002
           Y            0.00000   0.99993  -0.01185
           Z           -0.00002   0.01185   0.99993
 This molecule is an asymmetric top.
 Rotational symmetry number  1.
 Rotational temperatures (Kelvin)      7.08528     0.06055     0.06055
 Rotational constants (GHZ):         147.63320     1.26174     1.26174
    1 imaginary frequencies ignored.
 Zero-point vibrational energy     115515.3 (Joules/Mol)
                                   27.60881 (Kcal/Mol)
 Warning -- explicit consideration of   5 degrees of freedom as
           vibrations may cause significant error
 Vibrational temperatures:    230.75   230.78   339.90   563.74   563.78
          (Kelvin)           1434.60  1434.61  1620.63  2042.36  2042.40
                             3097.42  4559.79  4812.87  4812.95

 Zero-point correction=                           0.043997 (Hartree/Particle)
 Thermal correction to Energy=                    0.049333
 Thermal correction to Enthalpy=                  0.050277
 Thermal correction to Gibbs Free Energy=         0.015680
 Sum of electronic and zero-point Energies=           -592.962847
 Sum of electronic and thermal Energies=              -592.957511
 Sum of electronic and thermal Enthalpies=            -592.956567
 Sum of electronic and thermal Free Energies=         -592.991164

                     E (Thermal)             CV                S
                      KCal/Mol        Cal/Mol-Kelvin    Cal/Mol-Kelvin
 Total                   30.957             15.728             72.815
 Electronic               0.000              0.000              0.000
 Translational            0.889              2.981             38.900
 Rotational               0.889              2.981             24.729
 Vibrational             29.179              9.766              9.187
 Vibration     1          0.622              1.891              2.545
 Vibration     2          0.622              1.891              2.545
 Vibration     3          0.655              1.785              1.831
 Vibration     4          0.759              1.488              0.993
 Vibration     5          0.759              1.488              0.993

 Normal termination of Gaussian 16 at Sun Oct 13 09:50:01 2024.
