 Gaussian 16, Revision B.01,
 Gaussian 16:  ES64L-G16RevB.01 20-Dec-2017

 ---------------------------------------------------------------------
 #p b3lyp 6-31++g(d,p) scf=verytight NoSymm freq=noraman int=ultrafine
 ---------------------------------------------------------------------

 -------------------------
 RxCoord=-1.99953 DE=41.60
 -------------------------
 Symbolic Z-matrix:
 Charge = -1 Multiplicity = 1

                          Input orientation:
 ---------------------------------------------------------------------
 Center     Atomic      Atomic             Coordinates (Angstroms)
 Number     Number       Type             X           Y           Z
 ---------------------------------------------------------------------
      1          6           0        0.286962    0.000007   -0.000240
      2         17           0       -2.240131   -0.000002    0.000111
      3          1           0        0.117830    0.002486   -1.065769
      4          1           0        0.117837    0.921580    0.534612
      5          1           0        0.117821   -0.924043    0.530317
      6          6           0        2.231331    0.000004   -0.000210
      7          7           0        3.410610   -0.000006    0.000170
 ---------------------------------------------------------------------

 SCF Done:  E(RB3LYP) =  -593.005022137     A.U. after   12 cycles

 Alpha  occ. eigenvalues -- -101.28298 -14.19160 -10.11256 -10.07857  -9.19757
 Alpha  occ. eigenvalues --   -6.95615  -6.95477  -6.95477  -0.74435  -0.58600
 Alpha  occ. eigenvalues --   -0.53058  -0.30722  -0.30720  -0.29494  -0.20786
 Alpha  occ. eigenvalues --   -0.18667  -0.18667  -0.08049  -0.08049  -0.07946
 Alpha virt. eigenvalues --    0.10855   0.14729   0.14730   0.14731   0.15834
 Alpha virt. eigenvalues --    0.17295   0.17296   0.20260   0.21646   0.21646
 Alpha virt. eigenvalues --    0.23815   0.23839   0.23840   0.25741   0.25741

 Mulliken charges:
               1
     1  C   -0.182942
     2  Cl  -0.766318
     3  H    0.218397
     4  H    0.218403
     5  H    0.218404
     6  C   -0.154968
     7  N   -0.550976
 Sum of Mulliken charges =  -1.00000

 Dipole moment (field-independent basis, Debye):
    X=              1.5474    Y=              0.0000    Z=             -0.0010  Tot=              1.5474
 Quadrupole moment (field-independent basis, Debye-Ang):
   XX=            -86.0516   YY=            -35.3538   ZZ=            -35.3544
   XY=              0.0000   XZ=             -0.0002   YZ=              0.0000

  Exact polarizability: 114.319  -0.000  39.855   0.000  -0.000  39.855
 Approx polarizability: 141.433  -0.000  49.469   0.003   0.000  49.468

 ******    1 imaginary frequencies (negative Signs) ******

                      1                      2                      3
                      A                      A                      A
 Frequencies --   -464.2912               158.6800               158.6970
 Red. masses --     11.6538                 5.5767                 5.5770
 Frc consts  --      1.4801                 0.0827                 0.0828
 IR Inten    --    876.8991                19.3717                19.3714

                      4                      5                      6
                      A                      A                      A
 Frequencies --    235.9383               386.3685               386.3913
 Red. masses --     17.2012                 4.8353                 4.8354
 Frc consts  --      0.5642                 0.4253                 0.4253
 IR Inten    --     23.9856                 1.3561                 1.3568

                      7                      8                      9
                      A                      A                      A
 Frequencies --    996.1955               996.2015              1117.1474
 Red. masses --      1.1204                 1.1204                 1.0558
 Frc consts  --      0.6551                 0.6551                 0.7763
 IR Inten    --      0.0164                 0.0164                50.7920

                     10                     11                     12
                      A                      A                      A
 Frequencies --   1417.8538              1417.8885              2153.9831
 Red. masses --      1.0847                 1.0847                12.5726
 Frc consts  --      1.2848                 1.2848                34.3683
 IR Inten    --      5.5975                 5.5973                 2.9212

                     13                     14                     15
                      A                      A                      A
 Frequencies --   3172.0081              3350.7808              3350.8213
 Red. masses --      1.0117                 1.1208                 1.1209
 Frc consts  --      5.9977                 7.4146                 7.4149
 IR Inten    --      2.8546                 1.9791                 1.9842

 - Thermochemistry -
 -------------------
 Temperature   298.150 Kelvin.  Pressure   1.00000 Atm.
 Atom     1 has atomic number  6 and mass  12.00000

 Molecular mass:    75.99540 amu.
 Principal axes and moments of inertia in atomic units:
                           1         2         3
     Eigenvalues --    12.258521431.497341431.49827
           X            1.00000   0.00000   0.00002
           Y            0.00000   0.99996  -0.00948
           Z           -0.00002   0.00948   0.99996
 This molecule is an asymmetric top.
 Rotational symmetry number  1.
 Rotational temperatures (Kelvin)      7.06561     0.06051     0.06051
 Rotational constants (GHZ):         147.22340     1.26074     1.26074
    1 imaginary frequencies ignored.
 Zero-point vibrational energy     115433.4 (Joules/Mol)
                                   27.58924 (Kcal/Mol)
 Warning -- explicit consideration of   5 degrees of freedom as
           vibrations may cause significant error
 Vibrational temperatures:    228.31   228.33   339.46   555.90   555.93
          (Kelvin)           1433.30  1433.31  1607.33  2039.98  2040.03
                             3099.10  4563.81  4821.03  4821.08

 Zero-point correction=                           0.043966 (Hartree/Particle)
 Thermal correction to Energy=                    0.049320
 Thermal correction to Enthalpy=                  0.050264
 Thermal correction to Gibbs Free Energy=         0.015624
 Sum of electronic and zero-point Energies=           -592.961056
 Sum of electronic and thermal Energies=              -592.955702
 Sum of electronic and thermal Enthalpies=            -592.954758
 Sum of electronic and thermal Free Energies=         -592.989399

                     E (Thermal)             CV                S
                      KCal/Mol        Cal/Mol-Kelvin    Cal/Mol-Kelvin
 Total                   30.949             15.766             72.907
 Electronic               0.000              0.000              0.000
 Translational            0.889              2.981             38.900
 Rotational               0.889              2.981             24.733
 Vibrational             29.171              9.804              9.274
 Vibration     1          0.621              1.893              2.565
 Vibration     2          0.621              1.893              2.565
 Vibration     3          0.655              1.786              1.833
 Vibration     4          0.755              1.499              1.014
 Vibration     5          0.755              1.499              1.014

 Normal termination of Gaussian 16 at Sun Oct 13 09:50:06 2024.
