 Gaussian 16, Revision B.01,
 Gaussian 16:  ES64L-G16RevB.01 20-Dec-2017

 ---------------------------------------------------------------------
 #p b3lyp 6-31++g(d,p) scf=verytight NoSymm freq=noraman int=ultrafine
 ---------------------------------------------------------------------

 -------------------------
 RxCoord=-1.89955 DE=42.92
 -------------------------
 Symbolic Z-matrix:
 Charge = -1 Multiplicity = 1

                          Input orientation:
 ---------------------------------------------------------------------
 Center     Atomic      Atomic             Coordinates (Angstroms)
 Number     Number       Type             X           Y           Z
 ---------------------------------------------------------------------
      1          6           0        0.273402    0.000007   -0.000240
      2         17           0       -2.238560   -0.000002    0.000110
      3          1           0        0.116103    0.002490   -1.067171
      4          1           0        0.116109    0.922795    0.535316
      5          1           0        0.116094   -0.925262    0.531014
      6          6           0        2.235763    0.000004   -0.000212
      7          7           0        3.414884   -0.000006    0.000172
 ---------------------------------------------------------------------

 SCF Done:  E(RB3LYP) =  -593.003280391     A.U. after   12 cycles

 Alpha  occ. eigenvalues -- -101.28530 -14.18899 -10.11310 -10.07520  -9.19989
 Alpha  occ. eigenvalues --   -6.95857  -6.95705  -6.95705  -0.74182  -0.58627
 Alpha  occ. eigenvalues --   -0.53179  -0.30762  -0.30760  -0.29162  -0.20514
 Alpha  occ. eigenvalues --   -0.18446  -0.18446  -0.08241  -0.08241  -0.08140
 Alpha virt. eigenvalues --    0.10870   0.14652   0.14740   0.14740   0.15675
 Alpha virt. eigenvalues --    0.17469   0.17469   0.20202   0.21719   0.21719
 Alpha virt. eigenvalues --    0.23817   0.23818   0.23868   0.25715   0.25715

 Mulliken charges:
               1
     1  C   -0.195252
     2  Cl  -0.757406
     3  H    0.218351
     4  H    0.218356
     5  H    0.218357
     6  C   -0.149920
     7  N   -0.552487
 Sum of Mulliken charges =  -1.00000

 Dipole moment (field-independent basis, Debye):
    X=              1.3003    Y=              0.0000    Z=             -0.0010  Tot=              1.3003
 Quadrupole moment (field-independent basis, Debye-Ang):
   XX=            -86.1694   YY=            -35.3404   ZZ=            -35.3410
   XY=              0.0000   XZ=             -0.0002   YZ=              0.0000

  Exact polarizability: 115.861  -0.000  39.762   0.000  -0.000  39.763
 Approx polarizability: 143.908  -0.000  49.384   0.003   0.000  49.383

 ******    1 imaginary frequencies (negative Signs) ******

                      1                      2                      3
                      A                      A                      A
 Frequencies --   -472.1741               156.8283               156.8420
 Red. masses --     11.7660                 5.6623                 5.6626
 Frc consts  --      1.5455                 0.0821                 0.0821
 IR Inten    --    927.0298                18.9864                18.9861

                      4                      5                      6
                      A                      A                      A
 Frequencies --    235.5625               380.8172               380.8391
 Red. masses --     17.3990                 4.9320                 4.9322
 Frc consts  --      0.5688                 0.4214                 0.4215
 IR Inten    --     23.1241                 1.6371                 1.6378

                      7                      8                      9
                      A                      A                      A
 Frequencies --    995.3756               995.3838              1108.1283
 Red. masses --      1.1094                 1.1094                 1.0546
 Frc consts  --      0.6476                 0.6476                 0.7630
 IR Inten    --      0.0222                 0.0221                55.5639

                     10                     11                     12
                      A                      A                      A
 Frequencies --   1416.2153              1416.2552              2155.2572
 Red. masses --      1.0868                 1.0868                12.5849
 Frc consts  --      1.2843                 1.2844                34.4427
 IR Inten    --      5.4328                 5.4324                 2.9163

                     13                     14                     15
                      A                      A                      A
 Frequencies --   3174.6817              3356.1798              3356.1979
 Red. masses --      1.0112                 1.1213                 1.1213
 Frc consts  --      6.0047                 7.4415                 7.4417
 IR Inten    --      2.8085                 2.0902                 2.0954

 - Thermochemistry -
 -------------------
 Temperature   298.150 Kelvin.  Pressure   1.00000 Atm.
 Atom     1 has atomic number  6 and mass  12.00000

 Molecular mass:    75.99540 amu.
 Principal axes and moments of inertia in atomic units:
                           1         2         3
     Eigenvalues --    12.290841432.612051432.61302
           X            1.00000   0.00000   0.00002
           Y            0.00000   0.99996  -0.00937
           Z           -0.00002   0.00937   0.99996
 This molecule is an asymmetric top.
 Rotational symmetry number  1.
 Rotational temperatures (Kelvin)      7.04703     0.06046     0.06046
 Rotational constants (GHZ):         146.83633     1.25976     1.25975
    1 imaginary frequencies ignored.
 Zero-point vibrational energy     115347.3 (Joules/Mol)
                                   27.56867 (Kcal/Mol)
 Warning -- explicit consideration of   5 degrees of freedom as
           vibrations may cause significant error
 Vibrational temperatures:    225.64   225.66   338.92   547.91   547.94
          (Kelvin)           1432.12  1432.14  1594.35  2037.62  2037.68
                             3100.93  4567.66  4828.79  4828.82

 Zero-point correction=                           0.043933 (Hartree/Particle)
 Thermal correction to Energy=                    0.049307
 Thermal correction to Enthalpy=                  0.050251
 Thermal correction to Gibbs Free Energy=         0.015564
 Sum of electronic and zero-point Energies=           -592.959347
 Sum of electronic and thermal Energies=              -592.953974
 Sum of electronic and thermal Enthalpies=            -592.953030
 Sum of electronic and thermal Free Energies=         -592.987717

                     E (Thermal)             CV                S
                      KCal/Mol        Cal/Mol-Kelvin    Cal/Mol-Kelvin
 Total                   30.940             15.805             73.005
 Electronic               0.000              0.000              0.000
 Translational            0.889              2.981             38.900
 Rotational               0.889              2.981             24.737
 Vibrational             29.163              9.843              9.368
 Vibration     1          0.620              1.895              2.588
 Vibration     2          0.621              1.895              2.588
 Vibration     3          0.655              1.786              1.836
 Vibration     4          0.751              1.511              1.036
 Vibration     5          0.751              1.511              1.036

 Normal termination of Gaussian 16 at Sun Oct 13 09:50:03 2024.
