 Gaussian 16, Revision B.01,
 Gaussian 16:  ES64L-G16RevB.01 20-Dec-2017

 ---------------------------------------------------------------------
 #p b3lyp 6-31++g(d,p) scf=verytight NoSymm freq=noraman int=ultrafine
 ---------------------------------------------------------------------

 -------------------------
 RxCoord=-1.79957 DE=44.18
 -------------------------
 Symbolic Z-matrix:
 Charge = -1 Multiplicity = 1

                          Input orientation:
 ---------------------------------------------------------------------
 Center     Atomic      Atomic             Coordinates (Angstroms)
 Number     Number       Type             X           Y           Z
 ---------------------------------------------------------------------
      1          6           0        0.259812    0.000007   -0.000239
      2         17           0       -2.236960   -0.000002    0.000110
      3          1           0        0.114565    0.002494   -1.068489
      4          1           0        0.114571    0.923937    0.535979
      5          1           0        0.114556   -0.926407    0.531672
      6          6           0        2.240150    0.000004   -0.000214
      7          7           0        3.419107   -0.000006    0.000175
 ---------------------------------------------------------------------

 SCF Done:  E(RB3LYP) =  -593.001621976     A.U. after   12 cycles

 Alpha  occ. eigenvalues -- -101.28770 -14.18633 -10.11358 -10.07177  -9.20230
 Alpha  occ. eigenvalues --   -6.96107  -6.95940  -6.95940  -0.73925  -0.58670
 Alpha  occ. eigenvalues --   -0.53298  -0.30801  -0.30799  -0.28830  -0.20245
 Alpha  occ. eigenvalues --   -0.18219  -0.18219  -0.08438  -0.08438  -0.08336
 Alpha virt. eigenvalues --    0.10884   0.14541   0.14749   0.14750   0.15569
 Alpha virt. eigenvalues --    0.17642   0.17642   0.20141   0.21795   0.21795
 Alpha virt. eigenvalues --    0.23794   0.23795   0.23927   0.25690   0.25690

 Mulliken charges:
               1
     1  C   -0.207345
     2  Cl  -0.748252
     3  H    0.218289
     4  H    0.218293
     5  H    0.218294
     6  C   -0.145242
     7  N   -0.554037
 Sum of Mulliken charges =  -1.00000

 Dipole moment (field-independent basis, Debye):
    X=              1.0469    Y=              0.0000    Z=             -0.0010  Tot=              1.0469
 Quadrupole moment (field-independent basis, Debye-Ang):
   XX=            -86.2852   YY=            -35.3272   ZZ=            -35.3278
   XY=              0.0000   XZ=             -0.0002   YZ=              0.0000

  Exact polarizability: 117.314  -0.000  39.672   0.000  -0.000  39.672
 Approx polarizability: 146.306  -0.000  49.300   0.003  -0.000  49.299

 ******    1 imaginary frequencies (negative Signs) ******

                      1                      2                      3
                      A                      A                      A
 Frequencies --   -478.6021               154.8249               154.8356
 Red. masses --     11.8691                 5.7490                 5.7492
 Frc consts  --      1.6018                 0.0812                 0.0812
 IR Inten    --    974.6839                18.5627                18.5624

                      4                      5                      6
                      A                      A                      A
 Frequencies --    235.1287               375.1867               375.2071
 Red. masses --     17.5860                 5.0270                 5.0272
 Frc consts  --      0.5728                 0.4169                 0.4170
 IR Inten    --     22.1799                 1.9497                 1.9504

                      7                      8                      9
                      A                      A                      A
 Frequencies --    994.6354               994.6441              1099.4081
 Red. masses --      1.0990                 1.0989                 1.0536
 Frc consts  --      0.6406                 0.6406                 0.7503
 IR Inten    --      0.0278                 0.0278                60.0612

                     10                     11                     12
                      A                      A                      A
 Frequencies --   1414.6110              1414.6567              2156.6147
 Red. masses --      1.0889                 1.0889                12.5967
 Frc consts  --      1.2839                 1.2839                34.5185
 IR Inten    --      5.2761                 5.2756                 2.8296

                     13                     14                     15
                      A                      A                      A
 Frequencies --   3177.2233              3361.2853              3361.2878
 Red. masses --      1.0107                 1.1217                 1.1217
 Frc consts  --      6.0113                 7.4669                 7.4670
 IR Inten    --      2.7094                 2.1975                 2.2023

 - Thermochemistry -
 -------------------
 Temperature   298.150 Kelvin.  Pressure   1.00000 Atm.
 Atom     1 has atomic number  6 and mass  12.00000

 Molecular mass:    75.99540 amu.
 Principal axes and moments of inertia in atomic units:
                           1         2         3
     Eigenvalues --    12.321261433.703291433.70429
           X            1.00000   0.00000   0.00002
           Y            0.00000   0.99999  -0.00471
           Z           -0.00002   0.00471   0.99999
 This molecule is an asymmetric top.
 Rotational symmetry number  1.
 Rotational temperatures (Kelvin)      7.02963     0.06041     0.06041
 Rotational constants (GHZ):         146.47376     1.25880     1.25880
    1 imaginary frequencies ignored.
 Zero-point vibrational energy     115257.5 (Joules/Mol)
                                   27.54720 (Kcal/Mol)
 Warning -- explicit consideration of   5 degrees of freedom as
           vibrations may cause significant error
 Vibrational temperatures:    222.76   222.77   338.30   539.81   539.84
          (Kelvin)           1431.06  1431.07  1581.80  2035.31  2035.38
                             3102.89  4571.32  4836.14  4836.14

 Zero-point correction=                           0.043899 (Hartree/Particle)
 Thermal correction to Energy=                    0.049293
 Thermal correction to Enthalpy=                  0.050237
 Thermal correction to Gibbs Free Energy=         0.015500
 Sum of electronic and zero-point Energies=           -592.957723
 Sum of electronic and thermal Energies=              -592.952329
 Sum of electronic and thermal Enthalpies=            -592.951385
 Sum of electronic and thermal Free Energies=         -592.986122

                     E (Thermal)             CV                S
                      KCal/Mol        Cal/Mol-Kelvin    Cal/Mol-Kelvin
 Total                   30.932             15.844             73.110
 Electronic               0.000              0.000              0.000
 Translational            0.889              2.981             38.900
 Rotational               0.889              2.981             24.741
 Vibrational             29.154              9.882              9.469
 Vibration     1          0.620              1.897              2.612
 Vibration     2          0.620              1.897              2.612
 Vibration     3          0.655              1.787              1.839
 Vibration     4          0.746              1.523              1.059
 Vibration     5          0.746              1.523              1.058

 Normal termination of Gaussian 16 at Sun Oct 13 09:50:09 2024.
