 Gaussian 16, Revision B.01,
 Gaussian 16:  ES64L-G16RevB.01 20-Dec-2017

 ---------------------------------------------------------------------
 #p b3lyp 6-31++g(d,p) scf=verytight NoSymm freq=noraman int=ultrafine
 ---------------------------------------------------------------------

 -------------------------
 RxCoord=-1.69959 DE=45.39
 -------------------------
 Symbolic Z-matrix:
 Charge = -1 Multiplicity = 1

                          Input orientation:
 ---------------------------------------------------------------------
 Center     Atomic      Atomic             Coordinates (Angstroms)
 Number     Number       Type             X           Y           Z
 ---------------------------------------------------------------------
      1          6           0        0.246192    0.000007   -0.000238
      2         17           0       -2.235329   -0.000002    0.000109
      3          1           0        0.113206    0.002498   -1.069716
      4          1           0        0.113213    0.925000    0.536600
      5          1           0        0.113200   -0.927475    0.532286
      6          6           0        2.244490    0.000004   -0.000217
      7          7           0        3.423281   -0.000006    0.000177
 ---------------------------------------------------------------------

 SCF Done:  E(RB3LYP) =  -593.000049174     A.U. after   12 cycles

 Alpha  occ. eigenvalues -- -101.29018 -14.18363 -10.11402 -10.06828  -9.20479
 Alpha  occ. eigenvalues --   -6.96366  -6.96184  -6.96184  -0.73665  -0.58729
 Alpha  occ. eigenvalues --   -0.53413  -0.30837  -0.30836  -0.28500  -0.19978
 Alpha  occ. eigenvalues --   -0.17986  -0.17986  -0.08642  -0.08642  -0.08534
 Alpha virt. eigenvalues --    0.10898   0.14401   0.14759   0.14759   0.15509
 Alpha virt. eigenvalues --    0.17814   0.17814   0.20078   0.21874   0.21874
 Alpha virt. eigenvalues --    0.23772   0.23773   0.23990   0.25665   0.25666

 Mulliken charges:
               1
     1  C   -0.219160
     2  Cl  -0.738866
     3  H    0.218209
     4  H    0.218213
     5  H    0.218213
     6  C   -0.141007
     7  N   -0.555601
 Sum of Mulliken charges =  -1.00000

 Dipole moment (field-independent basis, Debye):
    X=              0.7877    Y=              0.0000    Z=             -0.0010  Tot=              0.7877
 Quadrupole moment (field-independent basis, Debye-Ang):
   XX=            -86.3988   YY=            -35.3145   ZZ=            -35.3150
   XY=              0.0000   XZ=             -0.0003   YZ=              0.0000

  Exact polarizability: 118.669  -0.000  39.583   0.000  -0.000  39.583
 Approx polarizability: 148.609  -0.000  49.218   0.002  -0.000  49.217

 ******    1 imaginary frequencies (negative Signs) ******

                      1                      2                      3
                      A                      A                      A
 Frequencies --   -483.7190               152.6749               152.6828
 Red. masses --     11.9627                 5.8365                 5.8368
 Frc consts  --      1.6492                 0.0802                 0.0802
 IR Inten    --   1019.5197                18.1001                18.0998

                      4                      5                      6
                      A                      A                      A
 Frequencies --    234.6512               369.4999               369.5196
 Red. masses --     17.7603                 5.1194                 5.1197
 Frc consts  --      0.5762                 0.4118                 0.4119
 IR Inten    --     21.1619                 2.2941                 2.2948

                      7                      8                      9
                      A                      A                      A
 Frequencies --    993.9670               993.9816              1091.0629
 Red. masses --      1.0892                 1.0892                 1.0527
 Frc consts  --      0.6340                 0.6340                 0.7383
 IR Inten    --      0.0332                 0.0332                64.2469

                     10                     11                     12
                      A                      A                      A
 Frequencies --   1413.0614              1413.1078              2158.0202
 Red. masses --      1.0909                 1.0909                12.6080
 Frc consts  --      1.2834                 1.2835                34.5946
 IR Inten    --      5.1277                 5.1272                 2.6702

                     13                     14                     15
                      A                      A                      A
 Frequencies --   3179.6191              3366.0590              3366.0845
 Red. masses --      1.0102                 1.1221                 1.1221
 Frc consts  --      6.0175                 7.4908                 7.4909
 IR Inten    --      2.5621                 2.3041                 2.2988

 - Thermochemistry -
 -------------------
 Temperature   298.150 Kelvin.  Pressure   1.00000 Atm.
 Atom     1 has atomic number  6 and mass  12.00000

 Molecular mass:    75.99540 amu.
 Principal axes and moments of inertia in atomic units:
                           1         2         3
     Eigenvalues --    12.349651434.770161434.77116
           X            1.00000   0.00000   0.00002
           Y            0.00000   1.00000  -0.00301
           Z           -0.00002   0.00301   1.00000
 This molecule is an asymmetric top.
 Rotational symmetry number  1.
 Rotational temperatures (Kelvin)      7.01347     0.06037     0.06037
 Rotational constants (GHZ):         146.13703     1.25786     1.25786
    1 imaginary frequencies ignored.
 Zero-point vibrational energy     115164.4 (Joules/Mol)
                                   27.52496 (Kcal/Mol)
 Warning -- explicit consideration of   5 degrees of freedom as
           vibrations may cause significant error
 Vibrational temperatures:    219.67   219.68   337.61   531.63   531.66
          (Kelvin)           1430.10  1430.12  1569.80  2033.08  2033.15
                             3104.91  4574.76  4843.01  4843.04

 Zero-point correction=                           0.043864 (Hartree/Particle)
 Thermal correction to Energy=                    0.049278
 Thermal correction to Enthalpy=                  0.050222
 Thermal correction to Gibbs Free Energy=         0.015433
 Sum of electronic and zero-point Energies=           -592.956185
 Sum of electronic and thermal Energies=              -592.950771
 Sum of electronic and thermal Enthalpies=            -592.949827
 Sum of electronic and thermal Free Energies=         -592.984616

                     E (Thermal)             CV                S
                      KCal/Mol        Cal/Mol-Kelvin    Cal/Mol-Kelvin
 Total                   30.923             15.883             73.220
 Electronic               0.000              0.000              0.000
 Translational            0.889              2.981             38.900
 Rotational               0.889              2.981             24.745
 Vibrational             29.145              9.921              9.575
 Vibration     1          0.619              1.900              2.639
 Vibration     2          0.619              1.900              2.639
 Vibration     3          0.654              1.788              1.843
 Vibration     4          0.742              1.535              1.082
 Vibration     5          0.742              1.535              1.082

 Normal termination of Gaussian 16 at Sun Oct 13 09:50:09 2024.
