 Gaussian 16, Revision B.01,
 Gaussian 16:  ES64L-G16RevB.01 20-Dec-2017

 ---------------------------------------------------------------------
 #p b3lyp 6-31++g(d,p) scf=verytight NoSymm freq=noraman int=ultrafine
 ---------------------------------------------------------------------

 -------------------------
 RxCoord=-1.59961 DE=46.53
 -------------------------
 Symbolic Z-matrix:
 Charge = -1 Multiplicity = 1

                          Input orientation:
 ---------------------------------------------------------------------
 Center     Atomic      Atomic             Coordinates (Angstroms)
 Number     Number       Type             X           Y           Z
 ---------------------------------------------------------------------
      1          6           0        0.232543    0.000007   -0.000235
      2         17           0       -2.233667   -0.000002    0.000108
      3          1           0        0.112015    0.002502   -1.070846
      4          1           0        0.112025    0.925980    0.537173
      5          1           0        0.112013   -0.928458    0.532853
      6          6           0        2.248781    0.000004   -0.000219
      7          7           0        3.427404   -0.000006    0.000179
 ---------------------------------------------------------------------

 SCF Done:  E(RB3LYP) =  -592.998564131     A.U. after   12 cycles

 Alpha  occ. eigenvalues -- -101.29275 -14.18089 -10.11440 -10.06476  -9.20736
 Alpha  occ. eigenvalues --   -6.96633  -6.96434  -6.96434  -0.73401  -0.58804
 Alpha  occ. eigenvalues --   -0.53524  -0.30872  -0.30870  -0.28172  -0.19717
 Alpha  occ. eigenvalues --   -0.17750  -0.17750  -0.08851  -0.08851  -0.08732
 Alpha virt. eigenvalues --    0.10912   0.14245   0.14768   0.14768   0.15481
 Alpha virt. eigenvalues --    0.17983   0.17984   0.20014   0.21954   0.21954
 Alpha virt. eigenvalues --    0.23751   0.23752   0.24058   0.25642   0.25642

 Mulliken charges:
               1
     1  C   -0.230638
     2  Cl  -0.729257
     3  H    0.218109
     4  H    0.218113
     5  H    0.218113
     6  C   -0.137283
     7  N   -0.557157
 Sum of Mulliken charges =  -1.00000

 Dipole moment (field-independent basis, Debye):
    X=              0.5232    Y=              0.0000    Z=             -0.0009  Tot=              0.5232
 Quadrupole moment (field-independent basis, Debye-Ang):
   XX=            -86.5096   YY=            -35.3022   ZZ=            -35.3028
   XY=              0.0000   XZ=             -0.0003   YZ=             -0.0000

  Exact polarizability: 119.921  -0.000  39.497   0.000  -0.000  39.497
 Approx polarizability: 150.800  -0.000  49.139   0.002  -0.000  49.137

 ******    1 imaginary frequencies (negative Signs) ******

                      1                      2                      3
                      A                      A                      A
 Frequencies --   -487.6450               150.3656               150.3710
 Red. masses --     12.0464                 5.9252                 5.9254
 Frc consts  --      1.6878                 0.0789                 0.0789
 IR Inten    --   1061.2371                17.5978                17.5976

                      4                      5                      6
                      A                      A                      A
 Frequencies --    234.1404               363.7687               363.7868
 Red. masses --     17.9202                 5.2081                 5.2084
 Frc consts  --      0.5788                 0.4061                 0.4061
 IR Inten    --     20.0790                 2.6707                 2.6714

                      7                      8                      9
                      A                      A                      A
 Frequencies --    993.3627               993.3797              1083.1671
 Red. masses --      1.0800                 1.0800                 1.0519
 Frc consts  --      0.6279                 0.6279                 0.7271
 IR Inten    --      0.0382                 0.0381                68.0969

                     10                     11                     12
                      A                      A                      A
 Frequencies --   1411.5793              1411.6295              2159.4671
 Red. masses --      1.0929                 1.0929                12.6188
 Frc consts  --      1.2831                 1.2831                34.6707
 IR Inten    --      4.9881                 4.9877                 2.4502

                     13                     14                     15
                      A                      A                      A
 Frequencies --   3181.8638              3370.5139              3370.5484
 Red. masses --      1.0098                 1.1225                 1.1225
 Frc consts  --      6.0234                 7.5131                 7.5131
 IR Inten    --      2.3734                 2.3983                 2.3929

 - Thermochemistry -
 -------------------
 Temperature   298.150 Kelvin.  Pressure   1.00000 Atm.
 Atom     1 has atomic number  6 and mass  12.00000

 Molecular mass:    75.99540 amu.
 Principal axes and moments of inertia in atomic units:
                           1         2         3
     Eigenvalues --    12.375841435.811501435.81251
           X            1.00000   0.00000   0.00002
           Y            0.00000   1.00000  -0.00184
           Z           -0.00002   0.00184   1.00000
 This molecule is an asymmetric top.
 Rotational symmetry number  1.
 Rotational temperatures (Kelvin)      6.99863     0.06032     0.06032
 Rotational constants (GHZ):         145.82780     1.25695     1.25695
    1 imaginary frequencies ignored.
 Zero-point vibrational energy     115068.5 (Joules/Mol)
                                   27.50202 (Kcal/Mol)
 Warning -- explicit consideration of   5 degrees of freedom as
           vibrations may cause significant error
 Vibrational temperatures:    216.34   216.35   336.88   523.38   523.41
          (Kelvin)           1429.23  1429.25  1558.44  2030.95  2031.02
                             3106.99  4577.99  4849.42  4849.47

 Zero-point correction=                           0.043827 (Hartree/Particle)
 Thermal correction to Energy=                    0.049264
 Thermal correction to Enthalpy=                  0.050208
 Thermal correction to Gibbs Free Energy=         0.015364
 Sum of electronic and zero-point Energies=           -592.954737
 Sum of electronic and thermal Energies=              -592.949300
 Sum of electronic and thermal Enthalpies=            -592.948356
 Sum of electronic and thermal Free Energies=         -592.983201

                     E (Thermal)             CV                S
                      KCal/Mol        Cal/Mol-Kelvin    Cal/Mol-Kelvin
 Total                   30.913             15.922             73.336
 Electronic               0.000              0.000              0.000
 Translational            0.889              2.981             38.900
 Rotational               0.889              2.981             24.748
 Vibrational             29.136              9.961              9.688
 Vibration     1          0.618              1.902              2.668
 Vibration     2          0.618              1.902              2.668
 Vibration     3          0.654              1.789              1.847
 Vibration     4          0.737              1.547              1.106
 Vibration     5          0.737              1.547              1.106

 Normal termination of Gaussian 16 at Sun Oct 13 09:50:09 2024.
