 Gaussian 16, Revision B.01,
 Gaussian 16:  ES64L-G16RevB.01 20-Dec-2017

 ---------------------------------------------------------------------
 #p b3lyp 6-31++g(d,p) scf=verytight NoSymm freq=noraman int=ultrafine
 ---------------------------------------------------------------------

 -------------------------
 RxCoord=-1.49963 DE=47.62
 -------------------------
 Symbolic Z-matrix:
 Charge = -1 Multiplicity = 1

                          Input orientation:
 ---------------------------------------------------------------------
 Center     Atomic      Atomic             Coordinates (Angstroms)
 Number     Number       Type             X           Y           Z
 ---------------------------------------------------------------------
      1          6           0        0.218869    0.000007   -0.000232
      2         17           0       -2.231972   -0.000002    0.000106
      3          1           0        0.110979    0.002505   -1.071872
      4          1           0        0.110994    0.926872    0.537696
      5          1           0        0.110983   -0.929353    0.533371
      6          6           0        2.253021    0.000005   -0.000222
      7          7           0        3.431478   -0.000007    0.000182
 ---------------------------------------------------------------------

 SCF Done:  E(RB3LYP) =  -592.997168605     A.U. after   12 cycles

 Alpha  occ. eigenvalues -- -101.29538 -14.17812 -10.11473 -10.06120  -9.20999
 Alpha  occ. eigenvalues --   -6.96907  -6.96692  -6.96692  -0.73135  -0.58897
 Alpha  occ. eigenvalues --   -0.53629  -0.30903  -0.30901  -0.27847  -0.19464
 Alpha  occ. eigenvalues --   -0.17509  -0.17509  -0.09066  -0.09066  -0.08928
 Alpha virt. eigenvalues --    0.10926   0.14083   0.14777   0.14777   0.15475
 Alpha virt. eigenvalues --    0.18150   0.18151   0.19949   0.22036   0.22036
 Alpha virt. eigenvalues --    0.23731   0.23732   0.24128   0.25620   0.25620

 Mulliken charges:
               1
     1  C   -0.241715
     2  Cl  -0.719434
     3  H    0.217990
     4  H    0.217992
     5  H    0.217993
     6  C   -0.134146
     7  N   -0.558681
 Sum of Mulliken charges =  -1.00000

 Dipole moment (field-independent basis, Debye):
    X=              0.2540    Y=              0.0000    Z=             -0.0009  Tot=              0.2540
 Quadrupole moment (field-independent basis, Debye-Ang):
   XX=            -86.6173   YY=            -35.2905   ZZ=            -35.2911
   XY=              0.0000   XZ=             -0.0003   YZ=             -0.0000

  Exact polarizability: 121.066  -0.000  39.414   0.000  -0.000  39.415
 Approx polarizability: 152.861  -0.000  49.063   0.002  -0.000  49.061

 ******    1 imaginary frequencies (negative Signs) ******

                      1                      2                      3
                      A                      A                      A
 Frequencies --   -490.4779               147.9009               147.9043
 Red. masses --     12.1203                 6.0147                 6.0148
 Frc consts  --      1.7179                 0.0775                 0.0775
 IR Inten    --   1099.5771                17.0566                17.0564

                      4                      5                      6
                      A                      A                      A
 Frequencies --    233.6027               358.0165               358.0342
 Red. masses --     18.0643                 5.2921                 5.2924
 Frc consts  --      0.5808                 0.3997                 0.3997
 IR Inten    --     18.9397                 3.0785                 3.0792

                      7                      8                      9
                      A                      A                      A
 Frequencies --    992.8075               992.8350              1075.7998
 Red. masses --      1.0715                 1.0715                 1.0512
 Frc consts  --      0.6223                 0.6223                 0.7168
 IR Inten    --      0.0425                 0.0424                71.6011

                     10                     11                     12
                      A                      A                      A
 Frequencies --   1410.1902              1410.2368              2160.9210
 Red. masses --      1.0948                 1.0948                12.6291
 Frc consts  --      1.2827                 1.2828                34.7457
 IR Inten    --      4.8578                 4.8572                 2.1837

                     13                     14                     15
                      A                      A                      A
 Frequencies --   3183.9371              3374.6043              3374.6654
 Red. masses --      1.0094                 1.1228                 1.1228
 Frc consts  --      6.0289                 7.5335                 7.5337
 IR Inten    --      2.1511                 2.4833                 2.4781

 - Thermochemistry -
 -------------------
 Temperature   298.150 Kelvin.  Pressure   1.00000 Atm.
 Atom     1 has atomic number  6 and mass  12.00000

 Molecular mass:    75.99540 amu.
 Principal axes and moments of inertia in atomic units:
                           1         2         3
     Eigenvalues --    12.399691436.826481436.82750
           X            1.00000   0.00000   0.00002
           Y           -0.00000   1.00000  -0.00117
           Z           -0.00002   0.00117   1.00000
 This molecule is an asymmetric top.
 Rotational symmetry number  1.
 Rotational temperatures (Kelvin)      6.98517     0.06028     0.06028
 Rotational constants (GHZ):         145.54724     1.25606     1.25606
    1 imaginary frequencies ignored.
 Zero-point vibrational energy     114969.8 (Joules/Mol)
                                   27.47845 (Kcal/Mol)
 Warning -- explicit consideration of   5 degrees of freedom as
           vibrations may cause significant error
 Vibrational temperatures:    212.80   212.80   336.10   515.11   515.13
          (Kelvin)           1428.43  1428.47  1547.84  2028.95  2029.02
                             3109.08  4580.98  4855.30  4855.39

 Zero-point correction=                           0.043790 (Hartree/Particle)
 Thermal correction to Energy=                    0.049249
 Thermal correction to Enthalpy=                  0.050193
 Thermal correction to Gibbs Free Energy=         0.015291
 Sum of electronic and zero-point Energies=           -592.953379
 Sum of electronic and thermal Energies=              -592.947920
 Sum of electronic and thermal Enthalpies=            -592.946976
 Sum of electronic and thermal Free Energies=         -592.981878

                     E (Thermal)             CV                S
                      KCal/Mol        Cal/Mol-Kelvin    Cal/Mol-Kelvin
 Total                   30.904             15.961             73.459
 Electronic               0.000              0.000              0.000
 Translational            0.889              2.981             38.900
 Rotational               0.889              2.981             24.752
 Vibrational             29.127              9.999              9.807
 Vibration     1          0.617              1.905              2.699
 Vibration     2          0.617              1.905              2.699
 Vibration     3          0.654              1.789              1.851
 Vibration     4          0.733              1.559              1.131
 Vibration     5          0.733              1.559              1.131

 Normal termination of Gaussian 16 at Sun Oct 13 09:50:14 2024.
