 Gaussian 16, Revision B.01,
 Gaussian 16:  ES64L-G16RevB.01 20-Dec-2017

 ---------------------------------------------------------------------
 #p b3lyp 6-31++g(d,p) scf=verytight NoSymm freq=noraman int=ultrafine
 ---------------------------------------------------------------------

 -------------------------
 RxCoord=-1.39966 DE=48.63
 -------------------------
 Symbolic Z-matrix:
 Charge = -1 Multiplicity = 1

                          Input orientation:
 ---------------------------------------------------------------------
 Center     Atomic      Atomic             Coordinates (Angstroms)
 Number     Number       Type             X           Y           Z
 ---------------------------------------------------------------------
      1          6           0        0.205169    0.000007   -0.000227
      2         17           0       -2.230243   -0.000002    0.000104
      3          1           0        0.110086    0.002508   -1.072789
      4          1           0        0.110106    0.927670    0.538166
      5          1           0        0.110095   -0.930154    0.533836
      6          6           0        2.257210    0.000005   -0.000224
      7          7           0        3.435504   -0.000007    0.000184
 ---------------------------------------------------------------------

 SCF Done:  E(RB3LYP) =  -592.995863563     A.U. after   12 cycles

 Alpha  occ. eigenvalues -- -101.29808 -14.17533 -10.11500 -10.05762  -9.21270
 Alpha  occ. eigenvalues --   -6.97189  -6.96957  -6.96957  -0.72868  -0.59006
 Alpha  occ. eigenvalues --   -0.53728  -0.30931  -0.30929  -0.27526  -0.19221
 Alpha  occ. eigenvalues --   -0.17266  -0.17266  -0.09286  -0.09286  -0.09121
 Alpha virt. eigenvalues --    0.10939   0.13922   0.14786   0.14786   0.15483
 Alpha virt. eigenvalues --    0.18313   0.18314   0.19884   0.22117   0.22117
 Alpha virt. eigenvalues --    0.23715   0.23716   0.24201   0.25600   0.25600

 Mulliken charges:
               1
     1  C   -0.252338
     2  Cl  -0.709400
     3  H    0.217850
     4  H    0.217851
     5  H    0.217851
     6  C   -0.131661
     7  N   -0.560153
 Sum of Mulliken charges =  -1.00000

 Dipole moment (field-independent basis, Debye):
    X=             -0.0195    Y=              0.0000    Z=             -0.0009  Tot=              0.0195
 Quadrupole moment (field-independent basis, Debye-Ang):
   XX=            -86.7217   YY=            -35.2796   ZZ=            -35.2802
   XY=              0.0000   XZ=             -0.0004   YZ=             -0.0000

  Exact polarizability: 122.102  -0.000  39.335   0.000  -0.000  39.335
 Approx polarizability: 154.780  -0.000  48.990   0.002  -0.000  48.989

 ******    1 imaginary frequencies (negative Signs) ******

                      1                      2                      3
                      A                      A                      A
 Frequencies --   -492.2996               145.2698               145.2725
 Red. masses --     12.1845                 6.1053                 6.1054
 Frc consts  --      1.7399                 0.0759                 0.0759
 IR Inten    --   1134.3382                16.4767                16.4766

                      4                      5                      6
                      A                      A                      A
 Frequencies --    233.0423               352.2558               352.2725
 Red. masses --     18.1916                 5.3702                 5.3706
 Frc consts  --      0.5821                 0.3926                 0.3927
 IR Inten    --     17.7513                 3.5171                 3.5177

                      7                      8                      9
                      A                      A                      A
 Frequencies --    992.2875               992.3227              1069.0280
 Red. masses --      1.0637                 1.0637                 1.0506
 Frc consts  --      0.6171                 0.6171                 0.7074
 IR Inten    --      0.0461                 0.0461                74.7603

                     10                     11                     12
                      A                      A                      A
 Frequencies --   1408.9060              1408.9500              2162.3699
 Red. masses --      1.0965                 1.0965                12.6389
 Frc consts  --      1.2824                 1.2825                34.8193
 IR Inten    --      4.7370                 4.7364                 1.8857

                     13                     14                     15
                      A                      A                      A
 Frequencies --   3185.8354              3378.3357              3378.4090
 Red. masses --      1.0090                 1.1231                 1.1231
 Frc consts  --      6.0340                 7.5522                 7.5524
 IR Inten    --      1.9041                 2.5575                 2.5524

 - Thermochemistry -
 -------------------
 Temperature   298.150 Kelvin.  Pressure   1.00000 Atm.
 Atom     1 has atomic number  6 and mass  12.00000

 Molecular mass:    75.99540 amu.
 Principal axes and moments of inertia in atomic units:
                           1         2         3
     Eigenvalues --    12.421061437.814781437.81580
           X            1.00000   0.00000   0.00001
           Y           -0.00000   1.00000  -0.00053
           Z           -0.00001   0.00053   1.00000
 This molecule is an asymmetric top.
 Rotational symmetry number  1.
 Rotational temperatures (Kelvin)      6.97315     0.06024     0.06024
 Rotational constants (GHZ):         145.29683     1.25520     1.25520
    1 imaginary frequencies ignored.
 Zero-point vibrational energy     114868.8 (Joules/Mol)
                                   27.45429 (Kcal/Mol)
 Warning -- explicit consideration of   5 degrees of freedom as
           vibrations may cause significant error
 Vibrational temperatures:    209.01   209.01   335.30   506.82   506.84
          (Kelvin)           1427.68  1427.73  1538.09  2027.10  2027.16
                             3111.17  4583.71  4860.67  4860.78

 Zero-point correction=                           0.043751 (Hartree/Particle)
 Thermal correction to Energy=                    0.049234
 Thermal correction to Enthalpy=                  0.050178
 Thermal correction to Gibbs Free Energy=         0.015214
 Sum of electronic and zero-point Energies=           -592.952112
 Sum of electronic and thermal Energies=              -592.946630
 Sum of electronic and thermal Enthalpies=            -592.945685
 Sum of electronic and thermal Free Energies=         -592.980649

                     E (Thermal)             CV                S
                      KCal/Mol        Cal/Mol-Kelvin    Cal/Mol-Kelvin
 Total                   30.895             16.000             73.588
 Electronic               0.000              0.000              0.000
 Translational            0.889              2.981             38.900
 Rotational               0.889              2.981             24.755
 Vibrational             29.117             10.038              9.933
 Vibration     1          0.617              1.908              2.733
 Vibration     2          0.617              1.908              2.733
 Vibration     3          0.654              1.790              1.855
 Vibration     4          0.729              1.571              1.156
 Vibration     5          0.729              1.571              1.156

 Normal termination of Gaussian 16 at Sun Oct 13 09:50:15 2024.
