 Gaussian 16, Revision B.01,
 Gaussian 16:  ES64L-G16RevB.01 20-Dec-2017

 ---------------------------------------------------------------------
 #p b3lyp 6-31++g(d,p) scf=verytight NoSymm freq=noraman int=ultrafine
 ---------------------------------------------------------------------

 -------------------------
 RxCoord=-1.29968 DE=49.57
 -------------------------
 Symbolic Z-matrix:
 Charge = -1 Multiplicity = 1

                          Input orientation:
 ---------------------------------------------------------------------
 Center     Atomic      Atomic             Coordinates (Angstroms)
 Number     Number       Type             X           Y           Z
 ---------------------------------------------------------------------
      1          6           0        0.191447    0.000007   -0.000221
      2         17           0       -2.228481   -0.000002    0.000101
      3          1           0        0.109320    0.002511   -1.073593
      4          1           0        0.109344    0.928369    0.538580
      5          1           0        0.109335   -0.930857    0.534245
      6          6           0        2.261347    0.000005   -0.000227
      7          7           0        3.439483   -0.000007    0.000187
 ---------------------------------------------------------------------

 SCF Done:  E(RB3LYP) =  -592.994650065     A.U. after   12 cycles

 Alpha  occ. eigenvalues -- -101.30085 -14.17253 -10.11522 -10.05403  -9.21547
 Alpha  occ. eigenvalues --   -6.97477  -6.97228  -6.97228  -0.72599  -0.59133
 Alpha  occ. eigenvalues --   -0.53820  -0.30955  -0.30953  -0.27209  -0.18990
 Alpha  occ. eigenvalues --   -0.17021  -0.17021  -0.09511  -0.09511  -0.09308
 Alpha virt. eigenvalues --    0.10953   0.13766   0.14794   0.14794   0.15500
 Alpha virt. eigenvalues --    0.18473   0.18473   0.19818   0.22197   0.22197
 Alpha virt. eigenvalues --    0.23703   0.23704   0.24276   0.25581   0.25581

 Mulliken charges:
               1
     1  C   -0.262454
     2  Cl  -0.699161
     3  H    0.217687
     4  H    0.217687
     5  H    0.217687
     6  C   -0.129896
     7  N   -0.561551
 Sum of Mulliken charges =  -1.00000

 Dipole moment (field-independent basis, Debye):
    X=             -0.2967    Y=              0.0000    Z=             -0.0009  Tot=              0.2967
 Quadrupole moment (field-independent basis, Debye-Ang):
   XX=            -86.8224   YY=            -35.2695   ZZ=            -35.2701
   XY=              0.0000   XZ=             -0.0004   YZ=             -0.0000

  Exact polarizability: 123.027  -0.000  39.260   0.000  -0.000  39.260
 Approx polarizability: 156.543  -0.000  48.923   0.002  -0.000  48.922

 ******    1 imaginary frequencies (negative Signs) ******

                      1                      2                      3
                      A                      A                      A
 Frequencies --   -493.1695               142.4669               142.4708
 Red. masses --     12.2399                 6.1970                 6.1970
 Frc consts  --      1.7540                 0.0741                 0.0741
 IR Inten    --   1165.3371                15.8597                15.8596

                      4                      5                      6
                      A                      A                      A
 Frequencies --    232.4654               346.5037               346.5189
 Red. masses --     18.3013                 5.4414                 5.4417
 Frc consts  --      0.5827                 0.3849                 0.3850
 IR Inten    --     16.5246                 3.9846                 3.9852

                      7                      8                      9
                      A                      A                      A
 Frequencies --    991.7865               991.8263              1062.9216
 Red. masses --      1.0566                 1.0565                 1.0501
 Frc consts  --      0.6123                 0.6124                 0.6990
 IR Inten    --      0.0490                 0.0490                77.5845

                     10                     11                     12
                      A                      A                      A
 Frequencies --   1407.7456              1407.7875              2163.7950
 Red. masses --      1.0982                 1.0982                12.6482
 Frc consts  --      1.2822                 1.2823                34.8908
 IR Inten    --      4.6260                 4.6254                 1.5718

                     13                     14                     15
                      A                      A                      A
 Frequencies --   3187.5421              3381.6837              3381.7537
 Red. masses --      1.0087                 1.1234                 1.1233
 Frc consts  --      6.0386                 7.5689                 7.5691
 IR Inten    --      1.6419                 2.6193                 2.6143

 - Thermochemistry -
 -------------------
 Temperature   298.150 Kelvin.  Pressure   1.00000 Atm.
 Atom     1 has atomic number  6 and mass  12.00000

 Molecular mass:    75.99540 amu.
 Principal axes and moments of inertia in atomic units:
                           1         2         3
     Eigenvalues --    12.439831438.777081438.77808
           X            1.00000   0.00000   0.00001
           Y           -0.00000   1.00000   0.00204
           Z           -0.00001  -0.00204   1.00000
 This molecule is an asymmetric top.
 Rotational symmetry number  1.
 Rotational temperatures (Kelvin)      6.96263     0.06020     0.06020
 Rotational constants (GHZ):         145.07765     1.25436     1.25436
    1 imaginary frequencies ignored.
 Zero-point vibrational energy     114765.3 (Joules/Mol)
                                   27.42958 (Kcal/Mol)
 Warning -- explicit consideration of   5 degrees of freedom as
           vibrations may cause significant error
 Vibrational temperatures:    204.98   204.98   334.47   498.54   498.56
          (Kelvin)           1426.96  1427.02  1529.31  2025.43  2025.49
                             3113.22  4586.16  4865.49  4865.59

 Zero-point correction=                           0.043712 (Hartree/Particle)
 Thermal correction to Energy=                    0.049219
 Thermal correction to Enthalpy=                  0.050163
 Thermal correction to Gibbs Free Energy=         0.015135
 Sum of electronic and zero-point Energies=           -592.950938
 Sum of electronic and thermal Energies=              -592.945431
 Sum of electronic and thermal Enthalpies=            -592.944487
 Sum of electronic and thermal Free Energies=         -592.979515

                     E (Thermal)             CV                S
                      KCal/Mol        Cal/Mol-Kelvin    Cal/Mol-Kelvin
 Total                   30.885             16.038             73.724
 Electronic               0.000              0.000              0.000
 Translational            0.889              2.981             38.900
 Rotational               0.889              2.981             24.758
 Vibrational             29.108             10.076             10.066
 Vibration     1          0.616              1.911              2.770
 Vibration     2          0.616              1.911              2.770
 Vibration     3          0.653              1.791              1.860
 Vibration     4          0.724              1.582              1.182
 Vibration     5          0.725              1.582              1.182

 Normal termination of Gaussian 16 at Sun Oct 13 09:50:21 2024.
