 Gaussian 16, Revision B.01,
 Gaussian 16:  ES64L-G16RevB.01 20-Dec-2017

 ---------------------------------------------------------------------
 #p b3lyp 6-31++g(d,p) scf=verytight NoSymm freq=noraman int=ultrafine
 ---------------------------------------------------------------------

 -------------------------
 RxCoord=-1.19970 DE=50.44
 -------------------------
 Symbolic Z-matrix:
 Charge = -1 Multiplicity = 1

                          Input orientation:
 ---------------------------------------------------------------------
 Center     Atomic      Atomic             Coordinates (Angstroms)
 Number     Number       Type             X           Y           Z
 ---------------------------------------------------------------------
      1          6           0        0.177703    0.000007   -0.000215
      2         17           0       -2.226685   -0.000002    0.000098
      3          1           0        0.108664    0.002513   -1.074277
      4          1           0        0.108694    0.928967    0.538935
      5          1           0        0.108685   -0.931457    0.534596
      6          6           0        2.265432    0.000005   -0.000230
      7          7           0        3.443416   -0.000007    0.000189
 ---------------------------------------------------------------------

 SCF Done:  E(RB3LYP) =  -592.993528436     A.U. after   12 cycles

 Alpha  occ. eigenvalues -- -101.30367 -14.16972 -10.11539 -10.05044  -9.21829
 Alpha  occ. eigenvalues --   -6.97771  -6.97505  -6.97505  -0.72329  -0.59276
 Alpha  occ. eigenvalues --   -0.53904  -0.30975  -0.30973  -0.26898  -0.18775
 Alpha  occ. eigenvalues --   -0.16774  -0.16774  -0.09740  -0.09740  -0.09486
 Alpha virt. eigenvalues --    0.10966   0.13618   0.14802   0.14803   0.15522
 Alpha virt. eigenvalues --    0.18627   0.18628   0.19753   0.22273   0.22273
 Alpha virt. eigenvalues --    0.23696   0.23698   0.24353   0.25564   0.25564

 Mulliken charges:
               1
     1  C   -0.272020
     2  Cl  -0.688718
     3  H    0.217502
     4  H    0.217501
     5  H    0.217501
     6  C   -0.128908
     7  N   -0.562858
 Sum of Mulliken charges =  -1.00000

 Dipole moment (field-independent basis, Debye):
    X=             -0.5771    Y=              0.0000    Z=             -0.0008  Tot=              0.5771
 Quadrupole moment (field-independent basis, Debye-Ang):
   XX=            -86.9191   YY=            -35.2604   ZZ=            -35.2609
   XY=              0.0000   XZ=             -0.0005   YZ=             -0.0000

  Exact polarizability: 123.841  -0.000  39.190   0.000  -0.000  39.190
 Approx polarizability: 158.141  -0.000  48.860   0.002  -0.000  48.859

 ******    1 imaginary frequencies (negative Signs) ******

                      1                      2                      3
                      A                      A                      A
 Frequencies --   -493.1313               139.4825               139.4883
 Red. masses --     12.2872                 6.2901                 6.2902
 Frc consts  --      1.7605                 0.0721                 0.0721
 IR Inten    --   1192.4358                15.2072                15.2071

                      4                      5                      6
                      A                      A                      A
 Frequencies --    231.8827               340.7714               340.7862
 Red. masses --     18.3931                 5.5043                 5.5047
 Frc consts  --      0.5827                 0.3766                 0.3767
 IR Inten    --     15.2736                 4.4794                 4.4799

                      7                      8                      9
                      A                      A                      A
 Frequencies --    991.2794               991.3326              1057.5406
 Red. masses --      1.0501                 1.0500                 1.0497
 Frc consts  --      0.6079                 0.6080                 0.6917
 IR Inten    --      0.0511                 0.0511                80.0912

                     10                     11                     12
                      A                      A                      A
 Frequencies --   1406.7269              1406.7612              2165.1851
 Red. masses --      1.0997                 1.0996                12.6570
 Frc consts  --      1.2821                 1.2822                34.9600
 IR Inten    --      4.5253                 4.5246                 1.2567

                     13                     14                     15
                      A                      A                      A
 Frequencies --   3189.0509              3384.6219              3384.7010
 Red. masses --      1.0085                 1.1236                 1.1236
 Frc consts  --      6.0428                 7.5836                 7.5838
 IR Inten    --      1.3742                 2.6671                 2.6623

 - Thermochemistry -
 -------------------
 Temperature   298.150 Kelvin.  Pressure   1.00000 Atm.
 Atom     1 has atomic number  6 and mass  12.00000

 Molecular mass:    75.99540 amu.
 Principal axes and moments of inertia in atomic units:
                           1         2         3
     Eigenvalues --    12.455861439.713061439.71407
           X            1.00000   0.00000   0.00001
           Y           -0.00000   1.00000   0.00025
           Z           -0.00001  -0.00025   1.00000
 This molecule is an asymmetric top.
 Rotational symmetry number  1.
 Rotational temperatures (Kelvin)      6.95367     0.06016     0.06016
 Rotational constants (GHZ):         144.89091     1.25354     1.25354
    1 imaginary frequencies ignored.
 Zero-point vibrational energy     114659.7 (Joules/Mol)
                                   27.40433 (Kcal/Mol)
 Warning -- explicit consideration of   5 degrees of freedom as
           vibrations may cause significant error
 Vibrational temperatures:    200.68   200.69   333.63   490.29   490.32
          (Kelvin)           1426.23  1426.31  1521.57  2023.97  2024.02
                             3115.22  4588.33  4869.72  4869.83

 Zero-point correction=                           0.043672 (Hartree/Particle)
 Thermal correction to Energy=                    0.049204
 Thermal correction to Enthalpy=                  0.050148
 Thermal correction to Gibbs Free Energy=         0.015052
 Sum of electronic and zero-point Energies=           -592.949857
 Sum of electronic and thermal Energies=              -592.944325
 Sum of electronic and thermal Enthalpies=            -592.943380
 Sum of electronic and thermal Free Energies=         -592.978477

                     E (Thermal)             CV                S
                      KCal/Mol        Cal/Mol-Kelvin    Cal/Mol-Kelvin
 Total                   30.876             16.075             73.867
 Electronic               0.000              0.000              0.000
 Translational            0.889              2.981             38.900
 Rotational               0.889              2.981             24.760
 Vibrational             29.098             10.113             10.207
 Vibration     1          0.615              1.914              2.811
 Vibration     2          0.615              1.914              2.811
 Vibration     3          0.653              1.792              1.864
 Vibration     4          0.720              1.594              1.209
 Vibration     5          0.720              1.594              1.208

 Normal termination of Gaussian 16 at Sun Oct 13 09:50:21 2024.
