 Gaussian 16, Revision B.01,
 Gaussian 16:  ES64L-G16RevB.01 20-Dec-2017

 ---------------------------------------------------------------------
 #p b3lyp 6-31++g(d,p) scf=verytight NoSymm freq=noraman int=ultrafine
 ---------------------------------------------------------------------

 -------------------------
 RxCoord=-1.09972 DE=51.24
 -------------------------
 Symbolic Z-matrix:
 Charge = -1 Multiplicity = 1

                          Input orientation:
 ---------------------------------------------------------------------
 Center     Atomic      Atomic             Coordinates (Angstroms)
 Number     Number       Type             X           Y           Z
 ---------------------------------------------------------------------
      1          6           0        0.163940    0.000007   -0.000207
      2         17           0       -2.224854   -0.000002    0.000095
      3          1           0        0.108102    0.002515   -1.074839
      4          1           0        0.108136    0.929458    0.539230
      5          1           0        0.108128   -0.931950    0.534887
      6          6           0        2.269464    0.000005   -0.000233
      7          7           0        3.447303   -0.000007    0.000192
 ---------------------------------------------------------------------

 SCF Done:  E(RB3LYP) =  -592.992498898     A.U. after   12 cycles

 Alpha  occ. eigenvalues -- -101.30655 -14.16691 -10.11551 -10.04685  -9.22118
 Alpha  occ. eigenvalues --   -6.98071  -6.97787  -6.97787  -0.72059  -0.59436
 Alpha  occ. eigenvalues --   -0.53980  -0.30989  -0.30988  -0.26592  -0.18578
 Alpha  occ. eigenvalues --   -0.16526  -0.16525  -0.09972  -0.09972  -0.09655
 Alpha virt. eigenvalues --    0.10980   0.13480   0.14810   0.14810   0.15549
 Alpha virt. eigenvalues --    0.18777   0.18777   0.19688   0.22344   0.22344
 Alpha virt. eigenvalues --    0.23698   0.23699   0.24431   0.25549   0.25549

 Mulliken charges:
               1
     1  C   -0.280997
     2  Cl  -0.678074
     3  H    0.217294
     4  H    0.217291
     5  H    0.217292
     6  C   -0.128750
     7  N   -0.564056
 Sum of Mulliken charges =  -1.00000

 Dipole moment (field-independent basis, Debye):
    X=             -0.8603    Y=              0.0000    Z=             -0.0008  Tot=              0.8603
 Quadrupole moment (field-independent basis, Debye-Ang):
   XX=            -87.0115   YY=            -35.2522   ZZ=            -35.2527
   XY=              0.0000   XZ=             -0.0005   YZ=             -0.0000

  Exact polarizability: 124.543  -0.000  39.124   0.000  -0.000  39.124
 Approx polarizability: 159.564  -0.000  48.803   0.002   0.000  48.801

 ******    1 imaginary frequencies (negative Signs) ******

                      1                      2                      3
                      A                      A                      A
 Frequencies --   -492.2099               136.3068               136.3146
 Red. masses --     12.3274                 6.3849                 6.3850
 Frc consts  --      1.7596                 0.0699                 0.0699
 IR Inten    --   1215.5171                14.5218                14.5215

                      4                      5                      6
                      A                      A                      A
 Frequencies --    231.3094               335.0733               335.0867
 Red. masses --     18.4672                 5.5580                 5.5585
 Frc consts  --      0.5822                 0.3677                 0.3677
 IR Inten    --     14.0168                 4.9988                 4.9992

                      7                      8                      9
                      A                      A                      A
 Frequencies --    990.7588               990.8190              1052.9433
 Red. masses --      1.0442                 1.0442                 1.0493
 Frc consts  --      0.6039                 0.6040                 0.6854
 IR Inten    --      0.0525                 0.0524                82.3031

                     10                     11                     12
                      A                      A                      A
 Frequencies --   1405.8596              1405.8911              2166.5295
 Red. masses --      1.1010                 1.1010                12.6654
 Frc consts  --      1.2821                 1.2821                35.0265
 IR Inten    --      4.4350                 4.4344                 0.9545

                     13                     14                     15
                      A                      A                      A
 Frequencies --   3190.3490              3387.1509              3387.2120
 Red. masses --      1.0082                 1.1238                 1.1238
 Frc consts  --      6.0463                 7.5962                 7.5963
 IR Inten    --      1.1105                 2.6996                 2.6950

 - Thermochemistry -
 -------------------
 Temperature   298.150 Kelvin.  Pressure   1.00000 Atm.
 Atom     1 has atomic number  6 and mass  12.00000

 Molecular mass:    75.99540 amu.
 Principal axes and moments of inertia in atomic units:
                           1         2         3
     Eigenvalues --    12.469061440.621951440.62294
           X            1.00000   0.00000   0.00001
           Y           -0.00000   1.00000  -0.00153
           Z           -0.00001   0.00153   1.00000
 This molecule is an asymmetric top.
 Rotational symmetry number  1.
 Rotational temperatures (Kelvin)      6.94630     0.06012     0.06012
 Rotational constants (GHZ):         144.73750     1.25275     1.25275
    1 imaginary frequencies ignored.
 Zero-point vibrational energy     114552.0 (Joules/Mol)
                                   27.37859 (Kcal/Mol)
 Warning -- explicit consideration of   5 degrees of freedom as
           vibrations may cause significant error
 Vibrational temperatures:    196.12   196.13   332.80   482.10   482.11
          (Kelvin)           1425.48  1425.57  1514.95  2022.72  2022.76
                             3117.15  4590.20  4873.35  4873.44

 Zero-point correction=                           0.043631 (Hartree/Particle)
 Thermal correction to Energy=                    0.049189
 Thermal correction to Enthalpy=                  0.050133
 Thermal correction to Gibbs Free Energy=         0.014965
 Sum of electronic and zero-point Energies=           -592.948868
 Sum of electronic and thermal Energies=              -592.943310
 Sum of electronic and thermal Enthalpies=            -592.942366
 Sum of electronic and thermal Free Energies=         -592.977534

                     E (Thermal)             CV                S
                      KCal/Mol        Cal/Mol-Kelvin    Cal/Mol-Kelvin
 Total                   30.866             16.111             74.018
 Electronic               0.000              0.000              0.000
 Translational            0.889              2.981             38.900
 Rotational               0.889              2.981             24.763
 Vibrational             29.089             10.150             10.355
 Vibration     1          0.614              1.917              2.855
 Vibration     2          0.614              1.917              2.855
 Vibration     3          0.653              1.793              1.869
 Vibration     4          0.716              1.605              1.236
 Vibration     5          0.716              1.605              1.235

 Normal termination of Gaussian 16 at Sun Oct 13 09:50:21 2024.
