 Gaussian 16, Revision B.01,
 Gaussian 16:  ES64L-G16RevB.01 20-Dec-2017

 ---------------------------------------------------------------------
 #p b3lyp 6-31++g(d,p) scf=verytight NoSymm freq=noraman int=ultrafine
 ---------------------------------------------------------------------

 -------------------------
 RxCoord=-0.99975 DE=51.97
 -------------------------
 Symbolic Z-matrix:
 Charge = -1 Multiplicity = 1

                          Input orientation:
 ---------------------------------------------------------------------
 Center     Atomic      Atomic             Coordinates (Angstroms)
 Number     Number       Type             X           Y           Z
 ---------------------------------------------------------------------
      1          6           0        0.150159    0.000007   -0.000200
      2         17           0       -2.222988   -0.000002    0.000091
      3          1           0        0.107614    0.002517   -1.075274
      4          1           0        0.107652    0.929840    0.539462
      5          1           0        0.107646   -0.932335    0.535116
      6          6           0        2.273443    0.000005   -0.000235
      7          7           0        3.451147   -0.000007    0.000194
 ---------------------------------------------------------------------

 SCF Done:  E(RB3LYP) =  -592.991561138     A.U. after   12 cycles

 Alpha  occ. eigenvalues -- -101.30948 -14.16411 -10.11557 -10.04328  -9.22411
 Alpha  occ. eigenvalues --   -6.98376  -6.98074  -6.98074  -0.71789  -0.59613
 Alpha  occ. eigenvalues --   -0.54047  -0.30999  -0.30998  -0.26292  -0.18403
 Alpha  occ. eigenvalues --   -0.16277  -0.16277  -0.10209  -0.10209  -0.09809
 Alpha virt. eigenvalues --    0.10993   0.13351   0.14818   0.14818   0.15577
 Alpha virt. eigenvalues --    0.18921   0.18922   0.19625   0.22406   0.22406
 Alpha virt. eigenvalues --    0.23710   0.23711   0.24510   0.25536   0.25536

 Mulliken charges:
               1
     1  C   -0.289356
     2  Cl  -0.667227
     3  H    0.217063
     4  H    0.217059
     5  H    0.217060
     6  C   -0.129472
     7  N   -0.565128
 Sum of Mulliken charges =  -1.00000

 Dipole moment (field-independent basis, Debye):
    X=             -1.1456    Y=              0.0000    Z=             -0.0007  Tot=              1.1456
 Quadrupole moment (field-independent basis, Debye-Ang):
   XX=            -87.0995   YY=            -35.2451   ZZ=            -35.2456
   XY=              0.0000   XZ=             -0.0006   YZ=             -0.0000

  Exact polarizability: 125.133  -0.000  39.064   0.000  -0.000  39.064
 Approx polarizability: 160.806  -0.000  48.751   0.002  -0.000  48.750

 ******    1 imaginary frequencies (negative Signs) ******

                      1                      2                      3
                      A                      A                      A
 Frequencies --   -490.4137               132.9437               132.9533
 Red. masses --     12.3614                 6.4814                 6.4816
 Frc consts  --      1.7516                 0.0675                 0.0675
 IR Inten    --   1234.4953                13.8071                13.8066

                      4                      5                      6
                      A                      A                      A
 Frequencies --    230.7650               329.4262               329.4390
 Red. masses --     18.5240                 5.6017                 5.6022
 Frc consts  --      0.5812                 0.3582                 0.3582
 IR Inten    --     12.7763                 5.5392                 5.5393

                      7                      8                      9
                      A                      A                      A
 Frequencies --    990.2019               990.2805              1049.1795
 Red. masses --      1.0391                 1.0391                 1.0490
 Frc consts  --      0.6003                 0.6004                 0.6804
 IR Inten    --      0.0531                 0.0530                84.2467

                     10                     11                     12
                      A                      A                      A
 Frequencies --   1405.1619              1405.1842              2167.8035
 Red. masses --      1.1021                 1.1021                12.6733
 Frc consts  --      1.2821                 1.2821                35.0897
 IR Inten    --      4.3555                 4.3548                 0.6779

                     13                     14                     15
                      A                      A                      A
 Frequencies --   3191.4257              3389.2310              3389.2941
 Red. masses --      1.0081                 1.1239                 1.1239
 Frc consts  --      6.0494                 7.6065                 7.6067
 IR Inten    --      0.8599                 2.7156                 2.7113

 - Thermochemistry -
 -------------------
 Temperature   298.150 Kelvin.  Pressure   1.00000 Atm.
 Atom     1 has atomic number  6 and mass  12.00000

 Molecular mass:    75.99540 amu.
 Principal axes and moments of inertia in atomic units:
                           1         2         3
     Eigenvalues --    12.479351441.504701441.50568
           X            1.00000   0.00000   0.00001
           Y           -0.00000   1.00000   0.00202
           Z           -0.00001  -0.00202   1.00000
 This molecule is an asymmetric top.
 Rotational symmetry number  1.
 Rotational temperatures (Kelvin)      6.94058     0.06009     0.06009
 Rotational constants (GHZ):         144.61818     1.25198     1.25198
    1 imaginary frequencies ignored.
 Zero-point vibrational energy     114442.5 (Joules/Mol)
                                   27.35241 (Kcal/Mol)
 Warning -- explicit consideration of   5 degrees of freedom as
           vibrations may cause significant error
 Vibrational temperatures:    191.28   191.29   332.02   473.97   473.99
          (Kelvin)           1424.68  1424.79  1509.54  2021.71  2021.75
                             3118.99  4591.75  4876.35  4876.44

 Zero-point correction=                           0.043589 (Hartree/Particle)
 Thermal correction to Energy=                    0.049173
 Thermal correction to Enthalpy=                  0.050118
 Thermal correction to Gibbs Free Energy=         0.014874
 Sum of electronic and zero-point Energies=           -592.947972
 Sum of electronic and thermal Energies=              -592.942388
 Sum of electronic and thermal Enthalpies=            -592.941443
 Sum of electronic and thermal Free Energies=         -592.976687

                     E (Thermal)             CV                S
                      KCal/Mol        Cal/Mol-Kelvin    Cal/Mol-Kelvin
 Total                   30.857             16.147             74.176
 Electronic               0.000              0.000              0.000
 Translational            0.889              2.981             38.900
 Rotational               0.889              2.981             24.765
 Vibrational             29.079             10.185             10.512
 Vibration     1          0.613              1.920              2.903
 Vibration     2          0.613              1.920              2.903
 Vibration     3          0.652              1.794              1.873
 Vibration     4          0.712              1.617              1.263
 Vibration     5          0.712              1.617              1.263

 Normal termination of Gaussian 16 at Sun Oct 13 09:50:21 2024.
