 Gaussian 16, Revision B.01,
 Gaussian 16:  ES64L-G16RevB.01 20-Dec-2017

 ---------------------------------------------------------------------
 #p b3lyp 6-31++g(d,p) scf=verytight NoSymm freq=noraman int=ultrafine
 ---------------------------------------------------------------------

 -------------------------
 RxCoord=-0.89977 DE=52.63
 -------------------------
 Symbolic Z-matrix:
 Charge = -1 Multiplicity = 1

                          Input orientation:
 ---------------------------------------------------------------------
 Center     Atomic      Atomic             Coordinates (Angstroms)
 Number     Number       Type             X           Y           Z
 ---------------------------------------------------------------------
      1          6           0        0.136362    0.000007   -0.000192
      2         17           0       -2.221087   -0.000002    0.000088
      3          1           0        0.107180    0.002518   -1.075581
      4          1           0        0.107223    0.930111    0.539629
      5          1           0        0.107217   -0.932607    0.535281
      6          6           0        2.277372    0.000005   -0.000238
      7          7           0        3.454949   -0.000007    0.000197
 ---------------------------------------------------------------------

 SCF Done:  E(RB3LYP) =  -592.990714579     A.U. after   12 cycles

 Alpha  occ. eigenvalues -- -101.31246 -14.16132 -10.11557 -10.03973  -9.22709
 Alpha  occ. eigenvalues --   -6.98686  -6.98366  -6.98366  -0.71520  -0.59806
 Alpha  occ. eigenvalues --   -0.54107  -0.31004  -0.31002  -0.26000  -0.18251
 Alpha  occ. eigenvalues --   -0.16029  -0.16029  -0.10448  -0.10448  -0.09947
 Alpha virt. eigenvalues --    0.11007   0.13232   0.14825   0.14825   0.15607
 Alpha virt. eigenvalues --    0.19059   0.19060   0.19564   0.22459   0.22459
 Alpha virt. eigenvalues --    0.23733   0.23734   0.24589   0.25526   0.25526

 Mulliken charges:
               1
     1  C   -0.297078
     2  Cl  -0.656175
     3  H    0.216810
     4  H    0.216805
     5  H    0.216805
     6  C   -0.131105
     7  N   -0.566062
 Sum of Mulliken charges =  -1.00000

 Dipole moment (field-independent basis, Debye):
    X=             -1.4327    Y=              0.0000    Z=             -0.0007  Tot=              1.4327
 Quadrupole moment (field-independent basis, Debye-Ang):
   XX=            -87.1829   YY=            -35.2391   ZZ=            -35.2396
   XY=              0.0000   XZ=             -0.0006   YZ=             -0.0000

  Exact polarizability: 125.614  -0.000  39.009   0.001  -0.000  39.009
 Approx polarizability: 161.860  -0.000  48.705   0.002  -0.000  48.704

 ******    1 imaginary frequencies (negative Signs) ******

                      1                      2                      3
                      A                      A                      A
 Frequencies --   -487.7337               129.3648               129.3762
 Red. masses --     12.3901                 6.5805                 6.5807
 Frc consts  --      1.7366                 0.0649                 0.0649
 IR Inten    --   1249.3073                13.0659                13.0653

                      4                      5                      6
                      A                      A                      A
 Frequencies --    230.2725               323.8339               323.8452
 Red. masses --     18.5644                 5.6341                 5.6346
 Frc consts  --      0.5800                 0.3481                 0.3482
 IR Inten    --     11.5772                 6.0975                 6.0975

                      7                      8                      9
                      A                      A                      A
 Frequencies --    989.6042               989.6938              1046.2899
 Red. masses --      1.0346                 1.0346                 1.0488
 Frc consts  --      0.5970                 0.5971                 0.6765
 IR Inten    --      0.0530                 0.0529                85.9485

                     10                     11                     12
                      A                      A                      A
 Frequencies --   1404.6380              1404.6573              2169.0181
 Red. masses --      1.1031                 1.1030                12.6808
 Frc consts  --      1.2823                 1.2823                35.1499
 IR Inten    --      4.2869                 4.2862                 0.4377

                     13                     14                     15
                      A                      A                      A
 Frequencies --   3192.2739              3390.8702              3390.9169
 Red. masses --      1.0079                 1.1240                 1.1240
 Frc consts  --      6.0518                 7.6146                 7.6147
 IR Inten    --      0.6304                 2.7145                 2.7104

 - Thermochemistry -
 -------------------
 Temperature   298.150 Kelvin.  Pressure   1.00000 Atm.
 Atom     1 has atomic number  6 and mass  12.00000

 Molecular mass:    75.99540 amu.
 Principal axes and moments of inertia in atomic units:
                           1         2         3
     Eigenvalues --    12.486651442.362201442.36316
           X            1.00000   0.00000   0.00001
           Y           -0.00000   1.00000   0.00115
           Z           -0.00001  -0.00115   1.00000
 This molecule is an asymmetric top.
 Rotational symmetry number  1.
 Rotational temperatures (Kelvin)      6.93652     0.06005     0.06005
 Rotational constants (GHZ):         144.53362     1.25124     1.25124
    1 imaginary frequencies ignored.
 Zero-point vibrational energy     114331.0 (Joules/Mol)
                                   27.32577 (Kcal/Mol)
 Warning -- explicit consideration of   5 degrees of freedom as
           vibrations may cause significant error
 Vibrational temperatures:    186.13   186.14   331.31   465.92   465.94
          (Kelvin)           1423.82  1423.95  1505.38  2020.96  2020.99
                             3120.73  4592.97  4878.71  4878.77

 Zero-point correction=                           0.043546 (Hartree/Particle)
 Thermal correction to Energy=                    0.049158
 Thermal correction to Enthalpy=                  0.050102
 Thermal correction to Gibbs Free Energy=         0.014779
 Sum of electronic and zero-point Energies=           -592.947168
 Sum of electronic and thermal Energies=              -592.941556
 Sum of electronic and thermal Enthalpies=            -592.940612
 Sum of electronic and thermal Free Energies=         -592.975935

                     E (Thermal)             CV                S
                      KCal/Mol        Cal/Mol-Kelvin    Cal/Mol-Kelvin
 Total                   30.847             16.181             74.344
 Electronic               0.000              0.000              0.000
 Translational            0.889              2.981             38.900
 Rotational               0.889              2.981             24.766
 Vibrational             29.070             10.219             10.677
 Vibration     1          0.612              1.924              2.955
 Vibration     2          0.612              1.924              2.955
 Vibration     3          0.652              1.795              1.877
 Vibration     4          0.708              1.628              1.291
 Vibration     5          0.708              1.628              1.291

 Normal termination of Gaussian 16 at Sun Oct 13 09:50:36 2024.
