 Gaussian 16, Revision B.01,
 Gaussian 16:  ES64L-G16RevB.01 20-Dec-2017

 ---------------------------------------------------------------------
 #p b3lyp 6-31++g(d,p) scf=verytight NoSymm freq=noraman int=ultrafine
 ---------------------------------------------------------------------

 -------------------------
 RxCoord=-0.79979 DE=53.21
 -------------------------
 Symbolic Z-matrix:
 Charge = -1 Multiplicity = 1

                          Input orientation:
 ---------------------------------------------------------------------
 Center     Atomic      Atomic             Coordinates (Angstroms)
 Number     Number       Type             X           Y           Z
 ---------------------------------------------------------------------
      1          6           0        0.122552    0.000007   -0.000185
      2         17           0       -2.219150   -0.000002    0.000084
      3          1           0        0.106780    0.002518   -1.075758
      4          1           0        0.106828    0.930268    0.539729
      5          1           0        0.106823   -0.932765    0.535380
      6          6           0        2.281250    0.000006   -0.000240
      7          7           0        3.458711   -0.000007    0.000200
 ---------------------------------------------------------------------

 SCF Done:  E(RB3LYP) =  -592.989958367     A.U. after   12 cycles

 Alpha  occ. eigenvalues -- -101.31547 -14.15855 -10.11553 -10.03621  -9.23012
 Alpha  occ. eigenvalues --   -6.99000  -6.98662  -6.98662  -0.71253  -0.60014
 Alpha  occ. eigenvalues --   -0.54158  -0.31003  -0.31002  -0.25715  -0.18127
 Alpha  occ. eigenvalues --   -0.15782  -0.15782  -0.10689  -0.10689  -0.10066
 Alpha virt. eigenvalues --    0.11020   0.13122   0.14831   0.14831   0.15638
 Alpha virt. eigenvalues --    0.19192   0.19193   0.19505   0.22499   0.22499
 Alpha virt. eigenvalues --    0.23769   0.23770   0.24668   0.25518   0.25519

 Mulliken charges:
               1
     1  C   -0.304153
     2  Cl  -0.644917
     3  H    0.216535
     4  H    0.216529
     5  H    0.216529
     6  C   -0.133680
     7  N   -0.566844
 Sum of Mulliken charges =  -1.00000

 Dipole moment (field-independent basis, Debye):
    X=             -1.7211    Y=              0.0000    Z=             -0.0007  Tot=              1.7211
 Quadrupole moment (field-independent basis, Debye-Ang):
   XX=            -87.2615   YY=            -35.2343   ZZ=            -35.2348
   XY=              0.0000   XZ=             -0.0006   YZ=             -0.0000

  Exact polarizability: 125.985  -0.000  38.959   0.001  -0.000  38.959
 Approx polarizability: 162.722  -0.000  48.666   0.002  -0.000  48.665

 ******    1 imaginary frequencies (negative Signs) ******

                      1                      2                      3
                      A                      A                      A
 Frequencies --   -484.1495               125.5746               125.5877
 Red. masses --     12.4140                 6.6823                 6.6825
 Frc consts  --      1.7144                 0.0621                 0.0621
 IR Inten    --   1259.9265                12.3036                12.3028

                      4                      5                      6
                      A                      A                      A
 Frequencies --    229.8569               318.3133               318.3226
 Red. masses --     18.5895                 5.6547                 5.6553
 Frc consts  --      0.5787                 0.3376                 0.3376
 IR Inten    --     10.4447                 6.6687                 6.6686

                      7                      8                      9
                      A                      A                      A
 Frequencies --    988.9546               989.0509              1044.3062
 Red. masses --      1.0308                 1.0308                 1.0486
 Frc consts  --      0.5940                 0.5941                 0.6738
 IR Inten    --      0.0523                 0.0522                87.4334

                     10                     11                     12
                      A                      A                      A
 Frequencies --   1404.2973              1404.3151              2170.1494
 Red. masses --      1.1038                 1.1038                12.6880
 Frc consts  --      1.2825                 1.2825                35.2065
 IR Inten    --      4.2294                 4.2287                 0.2434

                     13                     14                     15
                      A                      A                      A
 Frequencies --   3192.8905              3392.0527              3392.0835
 Red. masses --      1.0079                 1.1241                 1.1241
 Frc consts  --      6.0537                 7.6204                 7.6205
 IR Inten    --      0.4294                 2.6956                 2.6918

 - Thermochemistry -
 -------------------
 Temperature   298.150 Kelvin.  Pressure   1.00000 Atm.
 Atom     1 has atomic number  6 and mass  12.00000

 Molecular mass:    75.99540 amu.
 Principal axes and moments of inertia in atomic units:
                           1         2         3
     Eigenvalues --    12.490911443.194351443.19528
           X            1.00000   0.00000   0.00001
           Y           -0.00000   1.00000  -0.00029
           Z           -0.00001   0.00029   1.00000
 This molecule is an asymmetric top.
 Rotational symmetry number  1.
 Rotational temperatures (Kelvin)      6.93416     0.06002     0.06002
 Rotational constants (GHZ):         144.48442     1.25052     1.25052
    1 imaginary frequencies ignored.
 Zero-point vibrational energy     114218.0 (Joules/Mol)
                                   27.29875 (Kcal/Mol)
 Warning -- explicit consideration of   5 degrees of freedom as
           vibrations may cause significant error
 Vibrational temperatures:    180.67   180.69   330.71   457.98   458.00
          (Kelvin)           1422.89  1423.02  1502.52  2020.47  2020.50
                             3122.36  4593.86  4880.41  4880.45

 Zero-point correction=                           0.043503 (Hartree/Particle)
 Thermal correction to Energy=                    0.049143
 Thermal correction to Enthalpy=                  0.050087
 Thermal correction to Gibbs Free Energy=         0.014680
 Sum of electronic and zero-point Energies=           -592.946455
 Sum of electronic and thermal Energies=              -592.940815
 Sum of electronic and thermal Enthalpies=            -592.939871
 Sum of electronic and thermal Free Energies=         -592.975278

                     E (Thermal)             CV                S
                      KCal/Mol        Cal/Mol-Kelvin    Cal/Mol-Kelvin
 Total                   30.838             16.214             74.520
 Electronic               0.000              0.000              0.000
 Translational            0.889              2.981             38.900
 Rotational               0.889              2.981             24.768
 Vibrational             29.060             10.252             10.852
 Vibration     1          0.611              1.927              3.013
 Vibration     2          0.611              1.927              3.013
 Vibration     3          0.652              1.795              1.880
 Vibration     4          0.705              1.639              1.319
 Vibration     5          0.705              1.639              1.319

 Normal termination of Gaussian 16 at Sun Oct 13 09:50:37 2024.
