 Gaussian 16, Revision B.01,
 Gaussian 16:  ES64L-G16RevB.01 20-Dec-2017

 ---------------------------------------------------------------------
 #p b3lyp 6-31++g(d,p) scf=verytight NoSymm freq=noraman int=ultrafine
 ---------------------------------------------------------------------

 -------------------------
 RxCoord=-0.69982 DE=53.72
 -------------------------
 Symbolic Z-matrix:
 Charge = -1 Multiplicity = 1

                          Input orientation:
 ---------------------------------------------------------------------
 Center     Atomic      Atomic             Coordinates (Angstroms)
 Number     Number       Type             X           Y           Z
 ---------------------------------------------------------------------
      1          6           0        0.108730    0.000007   -0.000179
      2         17           0       -2.217179   -0.000002    0.000081
      3          1           0        0.106391    0.002519   -1.075802
      4          1           0        0.106445    0.930310    0.539763
      5          1           0        0.106441   -0.932808    0.535413
      6          6           0        2.285078    0.000006   -0.000242
      7          7           0        3.462434   -0.000007    0.000203
 ---------------------------------------------------------------------

 SCF Done:  E(RB3LYP) =  -592.989291242     A.U. after   12 cycles

 Alpha  occ. eigenvalues -- -101.31852 -14.15580 -10.11543 -10.03272  -9.23317
 Alpha  occ. eigenvalues --   -6.99317  -6.98962  -6.98962  -0.70987  -0.60236
 Alpha  occ. eigenvalues --   -0.54200  -0.30997  -0.30996  -0.25438  -0.18032
 Alpha  occ. eigenvalues --   -0.15536  -0.15536  -0.10933  -0.10933  -0.10163
 Alpha virt. eigenvalues --    0.11033   0.13023   0.14838   0.14838   0.15669
 Alpha virt. eigenvalues --    0.19318   0.19319   0.19448   0.22527   0.22527
 Alpha virt. eigenvalues --    0.23819   0.23819   0.24746   0.25514   0.25514

 Mulliken charges:
               1
     1  C   -0.310581
     2  Cl  -0.633448
     3  H    0.216240
     4  H    0.216233
     5  H    0.216233
     6  C   -0.137213
     7  N   -0.567465
 Sum of Mulliken charges =  -1.00000

 Dipole moment (field-independent basis, Debye):
    X=             -2.0103    Y=              0.0000    Z=             -0.0006  Tot=              2.0103
 Quadrupole moment (field-independent basis, Debye-Ang):
   XX=            -87.3352   YY=            -35.2306   ZZ=            -35.2311
   XY=              0.0000   XZ=             -0.0007   YZ=             -0.0000

  Exact polarizability: 126.248  -0.000  38.915   0.001  -0.000  38.916
 Approx polarizability: 163.388  -0.000  48.633   0.002  -0.000  48.632

 ******    1 imaginary frequencies (negative Signs) ******

                      1                      2                      3
                      A                      A                      A
 Frequencies --   -479.6309               121.5563               121.5709
 Red. masses --     12.4333                 6.7872                 6.7875
 Frc consts  --      1.6852                 0.0591                 0.0591
 IR Inten    --   1266.3568                11.5251                11.5242

                      4                      5                      6
                      A                      A                      A
 Frequencies --    229.5394               312.8711               312.8783
 Red. masses --     18.6007                 5.6632                 5.6637
 Frc consts  --      0.5774                 0.3266                 0.3267
 IR Inten    --      9.4011                 7.2479                 7.2476

                      7                      8                      9
                      A                      A                      A
 Frequencies --    988.2459               988.3471              1043.2515
 Red. masses --      1.0276                 1.0276                 1.0484
 Frc consts  --      0.5913                 0.5914                 0.6723
 IR Inten    --      0.0509                 0.0508                88.7240

                     10                     11                     12
                      A                      A                      A
 Frequencies --   1404.1477              1404.1613              2171.1951
 Red. masses --      1.1043                 1.1043                12.6949
 Frc consts  --      1.2828                 1.2828                35.2595
 IR Inten    --      4.1832                 4.1826                 0.1024

                     13                     14                     15
                      A                      A                      A
 Frequencies --   3193.2720              3392.7632              3392.7983
 Red. masses --      1.0078                 1.1241                 1.1241
 Frc consts  --      6.0549                 7.6238                 7.6239
 IR Inten    --      0.2626                 2.6588                 2.6553

 - Thermochemistry -
 -------------------
 Temperature   298.150 Kelvin.  Pressure   1.00000 Atm.
 Atom     1 has atomic number  6 and mass  12.00000

 Molecular mass:    75.99540 amu.
 Principal axes and moments of inertia in atomic units:
                           1         2         3
     Eigenvalues --    12.492081444.002741444.00365
           X            1.00000  -0.00000   0.00001
           Y           -0.00000   1.00000   0.00246
           Z           -0.00001  -0.00246   1.00000
 This molecule is an asymmetric top.
 Rotational symmetry number  1.
 Rotational temperatures (Kelvin)      6.93351     0.05998     0.05998
 Rotational constants (GHZ):         144.47089     1.24982     1.24982
    1 imaginary frequencies ignored.
 Zero-point vibrational energy     114103.4 (Joules/Mol)
                                   27.27137 (Kcal/Mol)
 Warning -- explicit consideration of   5 degrees of freedom as
           vibrations may cause significant error
 Vibrational temperatures:    174.89   174.91   330.26   450.15   450.16
          (Kelvin)           1421.87  1422.01  1501.01  2020.26  2020.27
                             3123.87  4594.41  4881.43  4881.48

 Zero-point correction=                           0.043460 (Hartree/Particle)
 Thermal correction to Energy=                    0.049128
 Thermal correction to Enthalpy=                  0.050072
 Thermal correction to Gibbs Free Energy=         0.014577
 Sum of electronic and zero-point Energies=           -592.945832
 Sum of electronic and thermal Energies=              -592.940163
 Sum of electronic and thermal Enthalpies=            -592.939219
 Sum of electronic and thermal Free Energies=         -592.974715

                     E (Thermal)             CV                S
                      KCal/Mol        Cal/Mol-Kelvin    Cal/Mol-Kelvin
 Total                   30.828             16.246             74.707
 Electronic               0.000              0.000              0.000
 Translational            0.889              2.981             38.900
 Rotational               0.889              2.981             24.769
 Vibrational             29.051             10.284             11.038
 Vibration     1          0.609              1.931              3.075
 Vibration     2          0.609              1.931              3.075
 Vibration     3          0.652              1.796              1.883
 Vibration     4          0.701              1.649              1.347
 Vibration     5          0.701              1.649              1.347

 Normal termination of Gaussian 16 at Sun Oct 13 09:50:37 2024.
