 Gaussian 16, Revision B.01,
 Gaussian 16:  ES64L-G16RevB.01 20-Dec-2017

 ---------------------------------------------------------------------
 #p b3lyp 6-31++g(d,p) scf=verytight NoSymm freq=noraman int=ultrafine
 ---------------------------------------------------------------------

 -------------------------
 RxCoord=-0.59984 DE=54.15
 -------------------------
 Symbolic Z-matrix:
 Charge = -1 Multiplicity = 1

                          Input orientation:
 ---------------------------------------------------------------------
 Center     Atomic      Atomic             Coordinates (Angstroms)
 Number     Number       Type             X           Y           Z
 ---------------------------------------------------------------------
      1          6           0        0.094898    0.000006   -0.000173
      2         17           0       -2.215172   -0.000002    0.000078
      3          1           0        0.105994    0.002519   -1.075714
      4          1           0        0.106054    0.930237    0.539728
      5          1           0        0.106051   -0.932735    0.535377
      6          6           0        2.288859    0.000006   -0.000243
      7          7           0        3.466120   -0.000007    0.000206
 ---------------------------------------------------------------------

 SCF Done:  E(RB3LYP) =  -592.988711553     A.U. after   12 cycles

 Alpha  occ. eigenvalues -- -101.32160 -14.15308 -10.11527 -10.02927  -9.23626
 Alpha  occ. eigenvalues --   -6.99638  -6.99264  -6.99264  -0.70723  -0.60473
 Alpha  occ. eigenvalues --   -0.54235  -0.30985  -0.30984  -0.25171  -0.17968
 Alpha  occ. eigenvalues --   -0.15291  -0.15291  -0.11179  -0.11179  -0.10236
 Alpha virt. eigenvalues --    0.11047   0.12933   0.14844   0.14844   0.15699
 Alpha virt. eigenvalues --    0.19394   0.19439   0.19440   0.22543   0.22543
 Alpha virt. eigenvalues --    0.23880   0.23881   0.24822   0.25512   0.25513

 Mulliken charges:
               1
     1  C   -0.316372
     2  Cl  -0.621763
     3  H    0.215927
     4  H    0.215919
     5  H    0.215919
     6  C   -0.141712
     7  N   -0.567917
 Sum of Mulliken charges =  -1.00000

 Dipole moment (field-independent basis, Debye):
    X=             -2.2999    Y=              0.0000    Z=             -0.0006  Tot=              2.2999
 Quadrupole moment (field-independent basis, Debye-Ang):
   XX=            -87.4041   YY=            -35.2282   ZZ=            -35.2287
   XY=              0.0000   XZ=             -0.0007   YZ=             -0.0000

  Exact polarizability: 126.404  -0.000  38.878   0.001  -0.000  38.878
 Approx polarizability: 163.856  -0.000  48.606   0.002   0.000  48.605

 ******    1 imaginary frequencies (negative Signs) ******

                      1                      2                      3
                      A                      A                      A
 Frequencies --   -474.1502               117.2798               117.2963
 Red. masses --     12.4475                 6.8959                 6.8963
 Frc consts  --      1.6488                 0.0559                 0.0559
 IR Inten    --   1268.6456                10.7356                10.7346

                      4                      5                      6
                      A                      A                      A
 Frequencies --    229.3332               307.5096               307.5140
 Red. masses --     18.5996                 5.6590                 5.6595
 Frc consts  --      0.5764                 0.3153                 0.3153
 IR Inten    --      8.4616                 7.8301                 7.8298

                      7                      8                      9
                      A                      A                      A
 Frequencies --    987.4836               987.5760              1043.1404
 Red. masses --      1.0251                 1.0251                 1.0482
 Frc consts  --      0.5890                 0.5891                 0.6720
 IR Inten    --      0.0491                 0.0490                89.8376

                     10                     11                     12
                      A                      A                      A
 Frequencies --   1404.1859              1404.2040              2172.1603
 Red. masses --      1.1046                 1.1046                12.7014
 Frc consts  --      1.2832                 1.2832                35.3090
 IR Inten    --      4.1484                 4.1479                 0.0204

                     13                     14                     15
                      A                      A                      A
 Frequencies --   3193.4206              3393.0181              3393.0489
 Red. masses --      1.0078                 1.1241                 1.1241
 Frc consts  --      6.0556                 7.6249                 7.6250
 IR Inten    --      0.1346                 2.6043                 2.6012

 - Thermochemistry -
 -------------------
 Temperature   298.150 Kelvin.  Pressure   1.00000 Atm.
 Atom     1 has atomic number  6 and mass  12.00000

 Molecular mass:    75.99540 amu.
 Principal axes and moments of inertia in atomic units:
                           1         2         3
     Eigenvalues --    12.490141444.787511444.78839
           X            1.00000   0.00000   0.00001
           Y           -0.00000   1.00000  -0.00127
           Z           -0.00001   0.00127   1.00000
 This molecule is an asymmetric top.
 Rotational symmetry number  1.
 Rotational temperatures (Kelvin)      6.93458     0.05995     0.05995
 Rotational constants (GHZ):         144.49327     1.24914     1.24914
    1 imaginary frequencies ignored.
 Zero-point vibrational energy     113987.2 (Joules/Mol)
                                   27.24359 (Kcal/Mol)
 Warning -- explicit consideration of   5 degrees of freedom as
           vibrations may cause significant error
 Vibrational temperatures:    168.74   168.76   329.96   442.44   442.44
          (Kelvin)           1420.77  1420.90  1500.85  2020.31  2020.34
                             3125.25  4594.62  4881.80  4881.84

 Zero-point correction=                           0.043415 (Hartree/Particle)
 Thermal correction to Energy=                    0.049113
 Thermal correction to Enthalpy=                  0.050058
 Thermal correction to Gibbs Free Energy=         0.014467
 Sum of electronic and zero-point Energies=           -592.945296
 Sum of electronic and thermal Energies=              -592.939598
 Sum of electronic and thermal Enthalpies=            -592.938654
 Sum of electronic and thermal Free Energies=         -592.974244

                     E (Thermal)             CV                S
                      KCal/Mol        Cal/Mol-Kelvin    Cal/Mol-Kelvin
 Total                   30.819             16.276             74.906
 Electronic               0.000              0.000              0.000
 Translational            0.889              2.981             38.900
 Rotational               0.889              2.981             24.770
 Vibrational             29.042             10.314             11.236
 Vibration     1          0.608              1.935              3.145
 Vibration     2          0.608              1.935              3.144
 Vibration     3          0.652              1.796              1.884
 Vibration     4          0.697              1.659              1.376
 Vibration     5          0.697              1.659              1.376

 Normal termination of Gaussian 16 at Sun Oct 13 09:50:37 2024.
