 Gaussian 16, Revision B.01,
 Gaussian 16:  ES64L-G16RevB.01 20-Dec-2017

 ---------------------------------------------------------------------
 #p b3lyp 6-31++g(d,p) scf=verytight NoSymm freq=noraman int=ultrafine
 ---------------------------------------------------------------------

 -------------------------
 RxCoord=-0.49987 DE=54.52
 -------------------------
 Symbolic Z-matrix:
 Charge = -1 Multiplicity = 1

                          Input orientation:
 ---------------------------------------------------------------------
 Center     Atomic      Atomic             Coordinates (Angstroms)
 Number     Number       Type             X           Y           Z
 ---------------------------------------------------------------------
      1          6           0        0.081059    0.000006   -0.000168
      2         17           0       -2.213130   -0.000002    0.000075
      3          1           0        0.105565    0.002518   -1.075493
      4          1           0        0.105634    0.930048    0.539624
      5          1           0        0.105631   -0.932547    0.535275
      6          6           0        2.292593    0.000006   -0.000243
      7          7           0        3.469772   -0.000007    0.000209
 ---------------------------------------------------------------------

 SCF Done:  E(RB3LYP) =  -592.988217395     A.U. after   12 cycles

 Alpha  occ. eigenvalues -- -101.32471 -14.15039 -10.11507 -10.02588  -9.23938
 Alpha  occ. eigenvalues --   -6.99962  -6.99570  -6.99570  -0.70462  -0.60722
 Alpha  occ. eigenvalues --   -0.54263  -0.30968  -0.30967  -0.24913  -0.17937
 Alpha  occ. eigenvalues --   -0.15050  -0.15050  -0.11425  -0.11425  -0.10284
 Alpha virt. eigenvalues --    0.11061   0.12853   0.14849   0.14849   0.15730
 Alpha virt. eigenvalues --    0.19344   0.19553   0.19554   0.22547   0.22547
 Alpha virt. eigenvalues --    0.23953   0.23954   0.24895   0.25501   0.25515

 Mulliken charges:
               1
     1  C   -0.321546
     2  Cl  -0.609860
     3  H    0.215597
     4  H    0.215588
     5  H    0.215588
     6  C   -0.147175
     7  N   -0.568193
 Sum of Mulliken charges =  -1.00000

 Dipole moment (field-independent basis, Debye):
    X=             -2.5894    Y=              0.0000    Z=             -0.0006  Tot=              2.5894
 Quadrupole moment (field-independent basis, Debye-Ang):
   XX=            -87.4680   YY=            -35.2270   ZZ=            -35.2274
   XY=              0.0000   XZ=             -0.0008   YZ=             -0.0000

  Exact polarizability: 126.454  -0.000  38.846   0.001  -0.000  38.846
 Approx polarizability: 164.126  -0.000  48.586   0.002  -0.000  48.585

 ******    1 imaginary frequencies (negative Signs) ******

                      1                      2                      3
                      A                      A                      A
 Frequencies --   -467.6931               112.7486               112.7673
 Red. masses --     12.4559                 7.0083                 7.0088
 Frc consts  --      1.6053                 0.0525                 0.0525
 IR Inten    --   1266.8828                 9.9427                 9.9416

                      4                      5                      6
                      A                      A                      A
 Frequencies --    229.2387               302.2397               302.2418
 Red. masses --     18.5874                 5.6425                 5.6428
 Frc consts  --      0.5755                 0.3037                 0.3037
 IR Inten    --      7.6327                 8.4080                 8.4078

                      7                      8                      9
                      A                      A                      A
 Frequencies --    986.6701               986.7500              1043.9806
 Red. masses --      1.0233                 1.0232                 1.0481
 Frc consts  --      0.5869                 0.5870                 0.6730
 IR Inten    --      0.0468                 0.0467                90.7859

                     10                     11                     12
                      A                      A                      A
 Frequencies --   1404.4180              1404.4387              2173.0222
 Red. masses --      1.1047                 1.1047                12.7076
 Frc consts  --      1.2837                 1.2838                35.3544
 IR Inten    --      4.1252                 4.1247                 0.0014

                     13                     14                     15
                      A                      A                      A
 Frequencies --   3193.3389              3392.8118              3392.8483
 Red. masses --      1.0079                 1.1241                 1.1241
 Frc consts  --      6.0557                 7.6236                 7.6237
 IR Inten    --      0.0483                 2.5329                 2.5298

 - Thermochemistry -
 -------------------
 Temperature   298.150 Kelvin.  Pressure   1.00000 Atm.
 Atom     1 has atomic number  6 and mass  12.00000

 Molecular mass:    75.99540 amu.
 Principal axes and moments of inertia in atomic units:
                           1         2         3
     Eigenvalues --    12.485101445.550211445.55107
           X            1.00000  -0.00000   0.00001
           Y           -0.00000   0.99999   0.00426
           Z           -0.00001  -0.00426   0.99999
 This molecule is an asymmetric top.
 Rotational symmetry number  1.
 Rotational temperatures (Kelvin)      6.93738     0.05992     0.05992
 Rotational constants (GHZ):         144.55155     1.24848     1.24848
    1 imaginary frequencies ignored.
 Zero-point vibrational energy     113869.6 (Joules/Mol)
                                   27.21549 (Kcal/Mol)
 Warning -- explicit consideration of   5 degrees of freedom as
           vibrations may cause significant error
 Vibrational temperatures:    162.22   162.25   329.82   434.86   434.86
          (Kelvin)           1419.60  1419.71  1502.06  2020.64  2020.67
                             3126.49  4594.50  4881.50  4881.55

 Zero-point correction=                           0.043371 (Hartree/Particle)
 Thermal correction to Energy=                    0.049099
 Thermal correction to Enthalpy=                  0.050043
 Thermal correction to Gibbs Free Energy=         0.014352
 Sum of electronic and zero-point Energies=           -592.944847
 Sum of electronic and thermal Energies=              -592.939119
 Sum of electronic and thermal Enthalpies=            -592.938174
 Sum of electronic and thermal Free Energies=         -592.973865

                     E (Thermal)             CV                S
                      KCal/Mol        Cal/Mol-Kelvin    Cal/Mol-Kelvin
 Total                   30.810             16.305             75.118
 Electronic               0.000              0.000              0.000
 Translational            0.889              2.981             38.900
 Rotational               0.889              2.981             24.771
 Vibrational             29.032             10.343             11.447
 Vibration     1          0.607              1.939              3.221
 Vibration     2          0.607              1.939              3.221
 Vibration     3          0.652              1.796              1.885
 Vibration     4          0.694              1.669              1.404
 Vibration     5          0.694              1.669              1.404

 Normal termination of Gaussian 16 at Sun Oct 13 09:50:38 2024.
