 Gaussian 16, Revision B.01,
 Gaussian 16:  ES64L-G16RevB.01 20-Dec-2017

 ---------------------------------------------------------------------
 #p b3lyp 6-31++g(d,p) scf=verytight NoSymm freq=noraman int=ultrafine
 ---------------------------------------------------------------------

 -------------------------
 RxCoord=-0.39989 DE=54.81
 -------------------------
 Symbolic Z-matrix:
 Charge = -1 Multiplicity = 1

                          Input orientation:
 ---------------------------------------------------------------------
 Center     Atomic      Atomic             Coordinates (Angstroms)
 Number     Number       Type             X           Y           Z
 ---------------------------------------------------------------------
      1          6           0        0.067214    0.000006   -0.000165
      2         17           0       -2.211052   -0.000002    0.000072
      3          1           0        0.105083    0.002517   -1.075142
      4          1           0        0.105162    0.929746    0.539454
      5          1           0        0.105159   -0.932244    0.535105
      6          6           0        2.296282    0.000007   -0.000243
      7          7           0        3.473390   -0.000007    0.000212
 ---------------------------------------------------------------------

 SCF Done:  E(RB3LYP) =  -592.987806439     A.U. after   12 cycles

 Alpha  occ. eigenvalues -- -101.32784 -14.14774 -10.11481 -10.02253  -9.24252
 Alpha  occ. eigenvalues --   -7.00288  -6.99877  -6.99877  -0.70204  -0.60984
 Alpha  occ. eigenvalues --   -0.54283  -0.30946  -0.30944  -0.24667  -0.17939
 Alpha  occ. eigenvalues --   -0.14811  -0.14811  -0.11672  -0.11672  -0.10305
 Alpha virt. eigenvalues --    0.11074   0.12782   0.14854   0.14854   0.15759
 Alpha virt. eigenvalues --    0.19298   0.19662   0.19663   0.22542   0.22542
 Alpha virt. eigenvalues --    0.24034   0.24034   0.24962   0.25496   0.25521

 Mulliken charges:
               1
     1  C   -0.326133
     2  Cl  -0.597730
     3  H    0.215253
     4  H    0.215244
     5  H    0.215243
     6  C   -0.153588
     7  N   -0.568288
 Sum of Mulliken charges =  -1.00000

 Dipole moment (field-independent basis, Debye):
    X=             -2.8784    Y=              0.0000    Z=             -0.0006  Tot=              2.8784
 Quadrupole moment (field-independent basis, Debye-Ang):
   XX=            -87.5270   YY=            -35.2269   ZZ=            -35.2274
   XY=              0.0000   XZ=             -0.0008   YZ=              0.0000

  Exact polarizability: 126.399  -0.000  38.819   0.001  -0.000  38.820
 Approx polarizability: 164.196  -0.000  48.572   0.003   0.000  48.571

 ******    1 imaginary frequencies (negative Signs) ******

                      1                      2                      3
                      A                      A                      A
 Frequencies --   -460.2598               107.9183               107.9394
 Red. masses --     12.4572                 7.1250                 7.1255
 Frc consts  --      1.5548                 0.0489                 0.0489
 IR Inten    --   1261.1963                 9.1521                 9.1509

                      4                      5                      6
                      A                      A                      A
 Frequencies --    229.2458               297.0558               297.0577
 Red. masses --     18.5656                 5.6141                 5.6138
 Frc consts  --      0.5749                 0.2919                 0.2919
 IR Inten    --      6.9132                 8.9761                 8.9765

                      7                      8                      9
                      A                      A                      A
 Frequencies --    985.8213               985.8886              1045.7754
 Red. masses --      1.0220                 1.0220                 1.0480
 Frc consts  --      0.5852                 0.5853                 0.6753
 IR Inten    --      0.0442                 0.0441                91.5740

                     10                     11                     12
                      A                      A                      A
 Frequencies --   1404.8436              1404.8662              2173.7938
 Red. masses --      1.1045                 1.1045                12.7136
 Frc consts  --      1.2843                 1.2844                35.3961
 IR Inten    --      4.1136                 4.1131                 0.0478

                     13                     14                     15
                      A                      A                      A
 Frequencies --   3193.0225              3392.1407              3392.1955
 Red. masses --      1.0080                 1.1240                 1.1240
 Frc consts  --      6.0552                 7.6200                 7.6202
 IR Inten    --      0.0052                 2.4452                 2.4424

 - Thermochemistry -
 -------------------
 Temperature   298.150 Kelvin.  Pressure   1.00000 Atm.
 Atom     1 has atomic number  6 and mass  12.00000

 Molecular mass:    75.99540 amu.
 Principal axes and moments of inertia in atomic units:
                           1         2         3
     Eigenvalues --    12.477021446.290681446.29152
           X            1.00000  -0.00000   0.00001
           Y            0.00000   1.00000  -0.00251
           Z           -0.00001   0.00251   1.00000
 This molecule is an asymmetric top.
 Rotational symmetry number  1.
 Rotational temperatures (Kelvin)      6.94188     0.05989     0.05989
 Rotational constants (GHZ):         144.64524     1.24784     1.24784
    1 imaginary frequencies ignored.
 Zero-point vibrational energy     113750.3 (Joules/Mol)
                                   27.18697 (Kcal/Mol)
 Warning -- explicit consideration of   5 degrees of freedom as
           vibrations may cause significant error
 Vibrational temperatures:    155.27   155.30   329.83   427.40   427.40
          (Kelvin)           1418.38  1418.47  1504.64  2021.26  2021.29
                             3127.60  4594.05  4880.53  4880.61

 Zero-point correction=                           0.043325 (Hartree/Particle)
 Thermal correction to Energy=                    0.049084
 Thermal correction to Enthalpy=                  0.050029
 Thermal correction to Gibbs Free Energy=         0.014229
 Sum of electronic and zero-point Energies=           -592.944481
 Sum of electronic and thermal Energies=              -592.938722
 Sum of electronic and thermal Enthalpies=            -592.937778
 Sum of electronic and thermal Free Energies=         -592.973577

                     E (Thermal)             CV                S
                      KCal/Mol        Cal/Mol-Kelvin    Cal/Mol-Kelvin
 Total                   30.801             16.332             75.346
 Electronic               0.000              0.000              0.000
 Translational            0.889              2.981             38.900
 Rotational               0.889              2.981             24.771
 Vibrational             29.023             10.371             11.675
 Vibration     1          0.606              1.943              3.306
 Vibration     2          0.606              1.943              3.306
 Vibration     3          0.652              1.796              1.885
 Vibration     4          0.691              1.679              1.433
 Vibration     5          0.691              1.679              1.433

 Normal termination of Gaussian 16 at Sun Oct 13 09:50:38 2024.
