 Gaussian 16, Revision B.01,
 Gaussian 16:  ES64L-G16RevB.01 20-Dec-2017

 ---------------------------------------------------------------------
 #p b3lyp 6-31++g(d,p) scf=verytight NoSymm freq=noraman int=ultrafine
 ---------------------------------------------------------------------

 -------------------------
 RxCoord=-0.29992 DE=55.04
 -------------------------
 Symbolic Z-matrix:
 Charge = -1 Multiplicity = 1

                          Input orientation:
 ---------------------------------------------------------------------
 Center     Atomic      Atomic             Coordinates (Angstroms)
 Number     Number       Type             X           Y           Z
 ---------------------------------------------------------------------
      1          6           0        0.053366    0.000006   -0.000162
      2         17           0       -2.208940   -0.000002    0.000068
      3          1           0        0.104530    0.002516   -1.074659
      4          1           0        0.104618    0.929330    0.539216
      5          1           0        0.104616   -0.931827    0.534869
      6          6           0        2.299926    0.000007   -0.000242
      7          7           0        3.476977   -0.000008    0.000216
 ---------------------------------------------------------------------

 SCF Done:  E(RB3LYP) =  -592.987476122     A.U. after   12 cycles

 Alpha  occ. eigenvalues -- -101.33098 -14.14513 -10.11450 -10.01924  -9.24568
 Alpha  occ. eigenvalues --   -7.00616  -7.00186  -7.00186  -0.69949  -0.61257
 Alpha  occ. eigenvalues --   -0.54297  -0.30918  -0.30917  -0.24432  -0.17972
 Alpha  occ. eigenvalues --   -0.14576  -0.14576  -0.11918  -0.11918  -0.10300
 Alpha virt. eigenvalues --    0.11088   0.12719   0.14859   0.14859   0.15788
 Alpha virt. eigenvalues --    0.19256   0.19764   0.19765   0.22528   0.22528
 Alpha virt. eigenvalues --    0.24120   0.24121   0.25022   0.25498   0.25532

 Mulliken charges:
               1
     1  C   -0.330169
     2  Cl  -0.585372
     3  H    0.214898
     4  H    0.214888
     5  H    0.214888
     6  C   -0.160933
     7  N   -0.568200
 Sum of Mulliken charges =  -1.00000

 Dipole moment (field-independent basis, Debye):
    X=             -3.1664    Y=              0.0000    Z=             -0.0005  Tot=              3.1664
 Quadrupole moment (field-independent basis, Debye-Ang):
   XX=            -87.5813   YY=            -35.2281   ZZ=            -35.2285
   XY=              0.0000   XZ=             -0.0009   YZ=             -0.0000

  Exact polarizability: 126.240  -0.000  38.799   0.001  -0.000  38.799
 Approx polarizability: 164.067  -0.000  48.565   0.003   0.000  48.564

 ******    1 imaginary frequencies (negative Signs) ******

                      1                      2                      3
                      A                      A                      A
 Frequencies --   -451.8673               102.7938               102.8172
 Red. masses --     12.4496                 7.2458                 7.2464
 Frc consts  --      1.4977                 0.0451                 0.0451
 IR Inten    --   1251.7561                 8.3718                 8.3706

                      4                      5                      6
                      A                      A                      A
 Frequencies --    229.3391               291.9640               291.9679
 Red. masses --     18.5354                 5.5740                 5.5736
 Frc consts  --      0.5744                 0.2799                 0.2799
 IR Inten    --      6.2983                 9.5272                 9.5278

                      7                      8                      9
                      A                      A                      A
 Frequencies --    984.9444               985.0012              1048.5064
 Red. masses --      1.0213                 1.0213                 1.0479
 Frc consts  --      0.5838                 0.5838                 0.6788
 IR Inten    --      0.0413                 0.0413                92.1942

                     10                     11                     12
                      A                      A                      A
 Frequencies --   1405.4529              1405.4790              2174.4529
 Red. masses --      1.1042                 1.1042                12.7193
 Frc consts  --      1.2850                 1.2851                35.4336
 IR Inten    --      4.1136                 4.1131                 0.1607

                     13                     14                     15
                      A                      A                      A
 Frequencies --   3192.5009              3391.0467              3391.1190
 Red. masses --      1.0082                 1.1239                 1.1238
 Frc consts  --      6.0542                 7.6143                 7.6145
 IR Inten    --      0.0056                 2.3427                 2.3401

 - Thermochemistry -
 -------------------
 Temperature   298.150 Kelvin.  Pressure   1.00000 Atm.
 Atom     1 has atomic number  6 and mass  12.00000

 Molecular mass:    75.99540 amu.
 Principal axes and moments of inertia in atomic units:
                           1         2         3
     Eigenvalues --    12.465871447.011011447.01184
           X            1.00000   0.00000   0.00000
           Y           -0.00000   1.00000  -0.00142
           Z           -0.00000   0.00142   1.00000
 This molecule is an asymmetric top.
 Rotational symmetry number  1.
 Rotational temperatures (Kelvin)      6.94809     0.05986     0.05986
 Rotational constants (GHZ):         144.77463     1.24722     1.24722
    1 imaginary frequencies ignored.
 Zero-point vibrational energy     113629.6 (Joules/Mol)
                                   27.15813 (Kcal/Mol)
 Warning -- explicit consideration of   5 degrees of freedom as
           vibrations may cause significant error
 Vibrational temperatures:    147.90   147.93   329.97   420.07   420.08
          (Kelvin)           1417.12  1417.20  1508.57  2022.13  2022.17
                             3128.55  4593.30  4878.96  4879.06

 Zero-point correction=                           0.043279 (Hartree/Particle)
 Thermal correction to Energy=                    0.049070
 Thermal correction to Enthalpy=                  0.050015
 Thermal correction to Gibbs Free Energy=         0.014098
 Sum of electronic and zero-point Energies=           -592.944197
 Sum of electronic and thermal Energies=              -592.938406
 Sum of electronic and thermal Enthalpies=            -592.937461
 Sum of electronic and thermal Free Energies=         -592.973378

                     E (Thermal)             CV                S
                      KCal/Mol        Cal/Mol-Kelvin    Cal/Mol-Kelvin
 Total                   30.792             16.358             75.592
 Electronic               0.000              0.000              0.000
 Translational            0.889              2.981             38.900
 Rotational               0.889              2.981             24.771
 Vibrational             29.015             10.396             11.921
 Vibration     1          0.605              1.947              3.401
 Vibration     2          0.605              1.947              3.400
 Vibration     3          0.652              1.796              1.884
 Vibration     4          0.687              1.689              1.463
 Vibration     5          0.687              1.689              1.463

 Normal termination of Gaussian 16 at Sun Oct 13 09:50:55 2024.
