 Gaussian 16, Revision B.01,
 Gaussian 16:  ES64L-G16RevB.01 20-Dec-2017

 ---------------------------------------------------------------------
 #p b3lyp 6-31++g(d,p) scf=verytight NoSymm freq=noraman int=ultrafine
 ---------------------------------------------------------------------

 -------------------------
 RxCoord=-0.19996 DE=55.20
 -------------------------
 Symbolic Z-matrix:
 Charge = -1 Multiplicity = 1

                          Input orientation:
 ---------------------------------------------------------------------
 Center     Atomic      Atomic             Coordinates (Angstroms)
 Number     Number       Type             X           Y           Z
 ---------------------------------------------------------------------
      1          6           0        0.039517    0.000006   -0.000159
      2         17           0       -2.206792   -0.000002    0.000065
      3          1           0        0.103871    0.002514   -1.074049
      4          1           0        0.103973    0.928802    0.538914
      5          1           0        0.103971   -0.931299    0.534570
      6          6           0        2.303529    0.000008   -0.000240
      7          7           0        3.480535   -0.000008    0.000220
 ---------------------------------------------------------------------

 SCF Done:  E(RB3LYP) =  -592.987223461     A.U. after   12 cycles

 Alpha  occ. eigenvalues -- -101.33414 -14.14256 -10.11415 -10.01602  -9.24885
 Alpha  occ. eigenvalues --   -7.00944  -7.00497  -7.00497  -0.69698  -0.61541
 Alpha  occ. eigenvalues --   -0.54305  -0.30886  -0.30885  -0.24211  -0.18034
 Alpha  occ. eigenvalues --   -0.14346  -0.14346  -0.12163  -0.12163  -0.10269
 Alpha virt. eigenvalues --    0.11102   0.12666   0.14863   0.14863   0.15817
 Alpha virt. eigenvalues --    0.19218   0.19860   0.19861   0.22509   0.22509
 Alpha virt. eigenvalues --    0.24209   0.24210   0.25069   0.25512   0.25548

 Mulliken charges:
               1
     1  C   -0.333704
     2  Cl  -0.572782
     3  H    0.214535
     4  H    0.214526
     5  H    0.214525
     6  C   -0.169174
     7  N   -0.567926
 Sum of Mulliken charges =  -1.00000

 Dipole moment (field-independent basis, Debye):
    X=             -3.4532    Y=              0.0000    Z=             -0.0005  Tot=              3.4532
 Quadrupole moment (field-independent basis, Debye-Ang):
   XX=            -87.6309   YY=            -35.2303   ZZ=            -35.2307
   XY=              0.0000   XZ=             -0.0009   YZ=              0.0000

  Exact polarizability: 125.978  -0.000  38.784   0.001  -0.000  38.785
 Approx polarizability: 163.739  -0.000  48.563   0.003  -0.000  48.563

 ******    1 imaginary frequencies (negative Signs) ******

                      1                      2                      3
                      A                      A                      A
 Frequencies --   -442.5275                97.3255                97.3514
 Red. masses --     12.4310                 7.3710                 7.3717
 Frc consts  --      1.4343                 0.0411                 0.0412
 IR Inten    --   1238.7502                 7.6077                 7.6064

                      4                      5                      6
                      A                      A                      A
 Frequencies --    229.5070               286.9585               286.9646
 Red. masses --     18.4982                 5.5231                 5.5228
 Frc consts  --      0.5741                 0.2680                 0.2680
 IR Inten    --      5.7860                10.0559                10.0566

                      7                      8                      9
                      A                      A                      A
 Frequencies --    984.0662               984.1148              1052.1582
 Red. masses --      1.0213                 1.0213                 1.0479
 Frc consts  --      0.5827                 0.5828                 0.6835
 IR Inten    --      0.0383                 0.0383                92.6343

                     10                     11                     12
                      A                      A                      A
 Frequencies --   1406.2428              1406.2720              2175.0131
 Red. masses --      1.1036                 1.1036                12.7248
 Frc consts  --      1.2858                 1.2859                35.4671
 IR Inten    --      4.1253                 4.1248                 0.3397

                     13                     14                     15
                      A                      A                      A
 Frequencies --   3191.7732              3389.5372              3389.6196
 Red. masses --      1.0084                 1.1237                 1.1237
 Frc consts  --      6.0526                 7.6064                 7.6067
 IR Inten    --      0.0484                 2.2270                 2.2245

 - Thermochemistry -
 -------------------
 Temperature   298.150 Kelvin.  Pressure   1.00000 Atm.
 Atom     1 has atomic number  6 and mass  12.00000

 Molecular mass:    75.99540 amu.
 Principal axes and moments of inertia in atomic units:
                           1         2         3
     Eigenvalues --    12.451761447.711591447.71239
           X            1.00000   0.00000   0.00000
           Y           -0.00000   1.00000   0.00148
           Z           -0.00000  -0.00148   1.00000
 This molecule is an asymmetric top.
 Rotational symmetry number  1.
 Rotational temperatures (Kelvin)      6.95596     0.05983     0.05983
 Rotational constants (GHZ):         144.93870     1.24662     1.24662
    1 imaginary frequencies ignored.
 Zero-point vibrational energy     113507.1 (Joules/Mol)
                                   27.12885 (Kcal/Mol)
 Warning -- explicit consideration of   5 degrees of freedom as
           vibrations may cause significant error
 Vibrational temperatures:    140.03   140.07   330.21   412.87   412.88
          (Kelvin)           1415.85  1415.92  1513.82  2023.27  2023.31
                             3129.36  4592.25  4876.79  4876.91

 Zero-point correction=                           0.043233 (Hartree/Particle)
 Thermal correction to Energy=                    0.049057
 Thermal correction to Enthalpy=                  0.050001
 Thermal correction to Gibbs Free Energy=         0.013957
 Sum of electronic and zero-point Energies=           -592.943991
 Sum of electronic and thermal Energies=              -592.938166
 Sum of electronic and thermal Enthalpies=            -592.937222
 Sum of electronic and thermal Free Energies=         -592.973267

                     E (Thermal)             CV                S
                      KCal/Mol        Cal/Mol-Kelvin    Cal/Mol-Kelvin
 Total                   30.784             16.382             75.862
 Electronic               0.000              0.000              0.000
 Translational            0.889              2.981             38.900
 Rotational               0.889              2.981             24.771
 Vibrational             29.006             10.421             12.191
 Vibration     1          0.603              1.951              3.507
 Vibration     2          0.603              1.951              3.507
 Vibration     3          0.652              1.796              1.883
 Vibration     4          0.684              1.698              1.492
 Vibration     5          0.684              1.698              1.492

 Normal termination of Gaussian 16 at Sun Oct 13 09:50:49 2024.
