 Gaussian 16, Revision B.01,
 Gaussian 16:  ES64L-G16RevB.01 20-Dec-2017

 ---------------------------------------------------------------------
 #p b3lyp 6-31++g(d,p) scf=verytight NoSymm freq=noraman int=ultrafine
 ---------------------------------------------------------------------

 -------------------------
 RxCoord=-0.10000 DE=55.29
 -------------------------
 Symbolic Z-matrix:
 Charge = -1 Multiplicity = 1

                          Input orientation:
 ---------------------------------------------------------------------
 Center     Atomic      Atomic             Coordinates (Angstroms)
 Number     Number       Type             X           Y           Z
 ---------------------------------------------------------------------
      1          6           0        0.025671    0.000005   -0.000156
      2         17           0       -2.204605   -0.000002    0.000061
      3          1           0        0.103053    0.002512   -1.073255
      4          1           0        0.103148    0.928119    0.538516
      5          1           0        0.103157   -0.930613    0.534176
      6          6           0        2.307087    0.000009   -0.000237
      7          7           0        3.484064   -0.000008    0.000225
 ---------------------------------------------------------------------

 SCF Done:  E(RB3LYP) =  -592.987045561     A.U. after   12 cycles

 Alpha  occ. eigenvalues -- -101.33729 -14.14004 -10.11372 -10.01286  -9.25202
 Alpha  occ. eigenvalues --   -7.01273  -7.00807  -7.00807  -0.69451  -0.61836
 Alpha  occ. eigenvalues --   -0.54307  -0.30851  -0.30850  -0.24005  -0.18122
 Alpha  occ. eigenvalues --   -0.14122  -0.14122  -0.12405  -0.12404  -0.10215
 Alpha virt. eigenvalues --    0.11117   0.12621   0.14866   0.14867   0.15845
 Alpha virt. eigenvalues --    0.19186   0.19950   0.19951   0.22485   0.22485
 Alpha virt. eigenvalues --    0.24299   0.24300   0.25102   0.25541   0.25571

 Mulliken charges:
               1
     1  C   -0.336803
     2  Cl  -0.559972
     3  H    0.214176
     4  H    0.214165
     5  H    0.214165
     6  C   -0.178266
     7  N   -0.567463
 Sum of Mulliken charges =  -1.00000

 Dipole moment (field-independent basis, Debye):
    X=             -3.7381    Y=              0.0000    Z=             -0.0005  Tot=              3.7381
 Quadrupole moment (field-independent basis, Debye-Ang):
   XX=            -87.6757   YY=            -35.2336   ZZ=            -35.2340
   XY=              0.0000   XZ=             -0.0010   YZ=             -0.0000

  Exact polarizability: 125.612  -0.000  38.774   0.002  -0.000  38.774
 Approx polarizability: 163.213  -0.000  48.566   0.003   0.000  48.565

 ******    1 imaginary frequencies (negative Signs) ******

                      1                      2                      3
                      A                      A                      A
 Frequencies --   -432.3638                91.5192                91.5469
 Red. masses --     12.3997                 7.4996                 7.5003
 Frc consts  --      1.3657                 0.0370                 0.0370
 IR Inten    --   1222.5477                 6.8682                 6.8669

                      4                      5                      6
                      A                      A                      A
 Frequencies --    229.7436               282.0461               282.0543
 Red. masses --     18.4552                 5.4629                 5.4626
 Frc consts  --      0.5739                 0.2560                 0.2560
 IR Inten    --      5.3732                10.5553                10.5560

                      7                      8                      9
                      A                      A                      A
 Frequencies --    982.9732               983.0220              1056.5036
 Red. masses --      1.0218                 1.0218                 1.0480
 Frc consts  --      0.5817                 0.5817                 0.6892
 IR Inten    --      0.0351                 0.0352                92.7972

                     10                     11                     12
                      A                      A                      A
 Frequencies --   1407.0849              1407.1225              2175.4450
 Red. masses --      1.1029                 1.1029                12.7301
 Frc consts  --      1.2865                 1.2866                35.4960
 IR Inten    --      4.1505                 4.1499                 0.5829

                     13                     14                     15
                      A                      A                      A
 Frequencies --   3191.4211              3388.2429              3388.3273
 Red. masses --      1.0086                 1.1235                 1.1235
 Frc consts  --      6.0528                 7.5993                 7.5996
 IR Inten    --      0.1319                 2.1026                 2.1001

 - Thermochemistry -
 -------------------
 Temperature   298.150 Kelvin.  Pressure   1.00000 Atm.
 Atom     1 has atomic number  6 and mass  12.00000

 Molecular mass:    75.99540 amu.
 Principal axes and moments of inertia in atomic units:
                           1         2         3
     Eigenvalues --    12.433401448.389151448.38998
           X            1.00000  -0.00000   0.00000
           Y            0.00000   1.00000   0.00121
           Z           -0.00000  -0.00121   1.00000
 This molecule is an asymmetric top.
 Rotational symmetry number  1.
 Rotational temperatures (Kelvin)      6.96623     0.05980     0.05980
 Rotational constants (GHZ):         145.15268     1.24603     1.24603
    1 imaginary frequencies ignored.
 Zero-point vibrational energy     113388.4 (Joules/Mol)
                                   27.10047 (Kcal/Mol)
 Warning -- explicit consideration of   5 degrees of freedom as
           vibrations may cause significant error
 Vibrational temperatures:    131.68   131.72   330.55   405.80   405.81
          (Kelvin)           1414.28  1414.35  1520.07  2024.48  2024.54
                             3129.98  4591.74  4874.93  4875.05

 Zero-point correction=                           0.043187 (Hartree/Particle)
 Thermal correction to Energy=                    0.049047
 Thermal correction to Enthalpy=                  0.049991
 Thermal correction to Gibbs Free Energy=         0.013806
 Sum of electronic and zero-point Energies=           -592.943858
 Sum of electronic and thermal Energies=              -592.937999
 Sum of electronic and thermal Enthalpies=            -592.937055
 Sum of electronic and thermal Free Energies=         -592.973240

                     E (Thermal)             CV                S
                      KCal/Mol        Cal/Mol-Kelvin    Cal/Mol-Kelvin
 Total                   30.777             16.406             76.158
 Electronic               0.000              0.000              0.000
 Translational            0.889              2.981             38.900
 Rotational               0.889              2.981             24.770
 Vibrational             29.000             10.444             12.488
 Vibration     1          0.602              1.955              3.627
 Vibration     2          0.602              1.955              3.627
 Vibration     3          0.652              1.796              1.881
 Vibration     4          0.681              1.707              1.521
 Vibration     5          0.681              1.707              1.521

 Normal termination of Gaussian 16 at Sun Oct 13 09:50:49 2024.
